
     Program PWSCF v.7.0 starts on 14Nov2022 at 16:33: 8 

     This program is part of the open-source Quantum ESPRESSO suite
     for quantum simulation of materials; please cite
         "P. Giannozzi et al., J. Phys.:Condens. Matter 21 395502 (2009);
         "P. Giannozzi et al., J. Phys.:Condens. Matter 29 465901 (2017);
         "P. Giannozzi et al., J. Chem. Phys. 152 154105 (2020);
          URL http://www.quantum-espresso.org", 
     in publications or presentations arising from this work. More details at
     http://www.quantum-espresso.org/quote

     Parallel version (MPI & OpenMP), running on       1 processor cores
     Number of MPI processes:                 1
     Threads/MPI process:                     1

     MPI processes distributed on     1 nodes
     4197 MiB available memory on the printing compute node when the environment starts

     Waiting for input...
     Reading input from standard input

     Current dimensions of program PWSCF are:
     Max number of different atomic species (ntypx) = 10
     Max number of k-points (npk) =  40000
     Max angular momentum in pseudopotentials (lmaxx) =  4
     file O.pbesol-n-kjpaw_psl.0.1.UPF: wavefunction(s)  2P renormalized
     Message from routine setup:
     using ibrav=0 with symmetry is DISCOURAGED, use correct ibrav instead

     Subspace diagonalization in iterative solution of the eigenvalue problem:
     a serial algorithm will be used


     G-vector sticks info
     --------------------
     sticks:   dense  smooth     PW     G-vecs:    dense   smooth      PW
     Sum        1569     787    229                58571    20729    3361

     Using Slab Decomposition



     bravais-lattice index     =            0
     lattice parameter (alat)  =       5.6110  a.u.
     unit-cell volume          =     433.8638 (a.u.)^3
     number of atoms/cell      =            6
     number of atomic types    =            2
     number of electrons       =        48.00
     number of Kohn-Sham states=           29
     kinetic-energy cutoff     =      50.0000  Ry
     charge density cutoff     =     400.0000  Ry
     scf convergence threshold =      1.2E-09
     mixing beta               =       0.4000
     number of iterations used =            8  local-TF  mixing
     Exchange-correlation= SLA  PW   PSX  PSC
                           (   1   4  10   8   0   0   0)

     celldm(1)=   5.610980  celldm(2)=   0.000000  celldm(3)=   0.000000
     celldm(4)=   0.000000  celldm(5)=   0.000000  celldm(6)=   0.000000

     crystal axes: (cart. coord. in units of alat)
               a(1) = (  -0.000000  -0.000000   1.000000 )  
               a(2) = (   1.567179  -0.000000   0.000000 )  
               a(3) = (   0.000000   1.567179   0.000000 )  

     reciprocal axes: (cart. coord. in units 2 pi/alat)
               b(1) = ( -0.000000  0.000000  1.000000 )  
               b(2) = (  0.638089 -0.000000  0.000000 )  
               b(3) = (  0.000000  0.638089  0.000000 )  


     PseudoPot. # 1 for O  read from file:
     ../pseudo/O.pbesol-n-kjpaw_psl.0.1.UPF
     MD5 check sum: 7098f27aa49fc7ac8e826d9ae6d6b4ba
     Pseudo is Projector augmented-wave + core cor, Zval =  6.0
     Generated using "atomic" code by A. Dal Corso  v.6.0 svn rev. 13079
     Shape of augmentation charge: BESSEL
     Using radial grid of 1095 points,  4 beta functions with: 
                l(1) =   0
                l(2) =   0
                l(3) =   1
                l(4) =   1
     Q(r) pseudized with 0 coefficients 


     PseudoPot. # 2 for Ti read from file:
     ../pseudo/ti_pbesol_v1.4.uspp.F.UPF
     MD5 check sum: 25344d407123bf74e0295af7643a8957
     Pseudo is Ultrasoft + core correction, Zval = 12.0
     Generated by new atomic code, or converted to UPF format
     Using radial grid of  851 points,  6 beta functions with: 
                l(1) =   0
                l(2) =   0
                l(3) =   1
                l(4) =   1
                l(5) =   2
                l(6) =   2
     Q(r) pseudized with  6 coefficients,  rinner =    1.000   1.000   1.000
                                                       1.000   1.000

     atomic species   valence    mass     pseudopotential
        O              6.00    15.99940     O ( 1.00)
        Ti            12.00    47.86700     Ti( 1.00)

     16 Sym. Ops., with inversion, found ( 8 have fractional translation)



   Cartesian axes

     site n.     atom                  positions (alat units)
         1           Ti  tau(   1) = (   0.7835894   0.7835894   0.5000000  )
         2           Ti  tau(   2) = (   0.0000000   0.0000000   0.0000000  )
         3           O   tau(   3) = (   0.3062581   1.2609207   0.5000000  )
         4           O   tau(   4) = (   1.2609207   0.3062581   0.5000000  )
         5           O   tau(   5) = (   0.4773313   0.4773313   0.0000000  )
         6           O   tau(   6) = (   1.0898475   1.0898475   0.0000000  )

     number of k points=    40  Methfessel-Paxton smearing, width (Ry)=  0.0220
                       cart. coord. in units 2pi/alat
        k(    1) = (   0.0000000   0.0000000   0.0000000), wk =   0.0058309
        k(    2) = (   0.0000000   0.0911556   0.0000000), wk =   0.0233236
        k(    3) = (   0.0000000   0.1823112   0.0000000), wk =   0.0233236
        k(    4) = (   0.0000000   0.2734668   0.0000000), wk =   0.0233236
        k(    5) = (   0.0911556   0.0911556   0.0000000), wk =   0.0233236
        k(    6) = (   0.0911556   0.1823112   0.0000000), wk =   0.0466472
        k(    7) = (   0.0911556   0.2734668   0.0000000), wk =   0.0466472
        k(    8) = (   0.1823112   0.1823112   0.0000000), wk =   0.0233236
        k(    9) = (   0.1823112   0.2734668   0.0000000), wk =   0.0466472
        k(   10) = (   0.2734668   0.2734668   0.0000000), wk =   0.0233236
        k(   11) = (   0.0000000   0.0000000   0.1428571), wk =   0.0116618
        k(   12) = (   0.0000000   0.0911556   0.1428571), wk =   0.0466472
        k(   13) = (   0.0000000   0.1823112   0.1428571), wk =   0.0466472
        k(   14) = (   0.0000000   0.2734668   0.1428571), wk =   0.0466472
        k(   15) = (   0.0911556   0.0911556   0.1428571), wk =   0.0466472
        k(   16) = (   0.0911556   0.1823112   0.1428571), wk =   0.0932945
        k(   17) = (   0.0911556   0.2734668   0.1428571), wk =   0.0932945
        k(   18) = (   0.1823112   0.1823112   0.1428571), wk =   0.0466472
        k(   19) = (   0.1823112   0.2734668   0.1428571), wk =   0.0932945
        k(   20) = (   0.2734668   0.2734668   0.1428571), wk =   0.0466472
        k(   21) = (   0.0000000   0.0000000   0.2857143), wk =   0.0116618
        k(   22) = (   0.0000000   0.0911556   0.2857143), wk =   0.0466472
        k(   23) = (   0.0000000   0.1823112   0.2857143), wk =   0.0466472
        k(   24) = (   0.0000000   0.2734668   0.2857143), wk =   0.0466472
        k(   25) = (   0.0911556   0.0911556   0.2857143), wk =   0.0466472
        k(   26) = (   0.0911556   0.1823112   0.2857143), wk =   0.0932945
        k(   27) = (   0.0911556   0.2734668   0.2857143), wk =   0.0932945
        k(   28) = (   0.1823112   0.1823112   0.2857143), wk =   0.0466472
        k(   29) = (   0.1823112   0.2734668   0.2857143), wk =   0.0932945
        k(   30) = (   0.2734668   0.2734668   0.2857143), wk =   0.0466472
        k(   31) = (   0.0000000   0.0000000   0.4285714), wk =   0.0116618
        k(   32) = (   0.0000000   0.0911556   0.4285714), wk =   0.0466472
        k(   33) = (   0.0000000   0.1823112   0.4285714), wk =   0.0466472
        k(   34) = (   0.0000000   0.2734668   0.4285714), wk =   0.0466472
        k(   35) = (   0.0911556   0.0911556   0.4285714), wk =   0.0466472
        k(   36) = (   0.0911556   0.1823112   0.4285714), wk =   0.0932945
        k(   37) = (   0.0911556   0.2734668   0.4285714), wk =   0.0932945
        k(   38) = (   0.1823112   0.1823112   0.4285714), wk =   0.0466472
        k(   39) = (   0.1823112   0.2734668   0.4285714), wk =   0.0932945
        k(   40) = (   0.2734668   0.2734668   0.4285714), wk =   0.0466472

     Dense  grid:    58571 G-vectors     FFT dimensions: (  36,  60,  60)

     Smooth grid:    20729 G-vectors     FFT dimensions: (  30,  40,  40)

     Estimated max dynamical RAM per process >     267.28 MB

     Check: negative core charge=   -0.000007
     Cannot read rho : file not found

     Initial potential from superposition of free atoms

     starting charge      45.9999, renormalised to      48.0000

     negative rho (up, down):  1.635E-03 0.000E+00
     Starting wfcs are   36 randomized atomic wfcs
     Checking if some PAW data can be deallocated... 

     total cpu time spent up to now is        3.3 secs

     per-process dynamical memory:    87.0 Mb

     Self-consistent Calculation

     iteration #  1     ecut=    50.00 Ry     beta= 0.40
     Davidson diagonalization with overlap
     ethr =  1.00E-05,  avg # of iterations = 10.2

     negative rho (up, down):  1.912E-03 0.000E+00

     total cpu time spent up to now is       10.5 secs

     total energy              =    -403.71647430 Ry
     estimated scf accuracy    <       1.14292276 Ry

     iteration #  2     ecut=    50.00 Ry     beta= 0.40
     Davidson diagonalization with overlap
     ethr =  2.38E-03,  avg # of iterations =  1.4

     negative rho (up, down):  2.080E-03 0.000E+00

     total cpu time spent up to now is       13.4 secs

     total energy              =    -403.63021557 Ry
     estimated scf accuracy    <       0.32645332 Ry

     iteration #  3     ecut=    50.00 Ry     beta= 0.40
     Davidson diagonalization with overlap
     ethr =  6.80E-04,  avg # of iterations =  3.9

     negative rho (up, down):  1.600E-03 0.000E+00

     total cpu time spent up to now is       17.1 secs

     total energy              =    -403.69324880 Ry
     estimated scf accuracy    <       0.11217793 Ry

     iteration #  4     ecut=    50.00 Ry     beta= 0.40
     Davidson diagonalization with overlap
     ethr =  2.34E-04,  avg # of iterations =  4.0

     negative rho (up, down):  1.566E-03 0.000E+00

     total cpu time spent up to now is       21.3 secs

     total energy              =    -403.71438989 Ry
     estimated scf accuracy    <       0.08147686 Ry

     iteration #  5     ecut=    50.00 Ry     beta= 0.40
     Davidson diagonalization with overlap
     ethr =  1.70E-04,  avg # of iterations =  3.5

     negative rho (up, down):  1.604E-03 0.000E+00

     total cpu time spent up to now is       24.9 secs

     total energy              =    -403.72725153 Ry
     estimated scf accuracy    <       0.00079834 Ry

     iteration #  6     ecut=    50.00 Ry     beta= 0.40
     Davidson diagonalization with overlap
     ethr =  1.66E-06,  avg # of iterations =  5.8

     negative rho (up, down):  1.560E-03 0.000E+00

     total cpu time spent up to now is       30.0 secs

     total energy              =    -403.72858518 Ry
     estimated scf accuracy    <       0.00261846 Ry

     iteration #  7     ecut=    50.00 Ry     beta= 0.40
     Davidson diagonalization with overlap
     ethr =  1.66E-06,  avg # of iterations =  3.7

     negative rho (up, down):  1.538E-03 0.000E+00

     total cpu time spent up to now is       33.4 secs

     total energy              =    -403.72869411 Ry
     estimated scf accuracy    <       0.00035192 Ry

     iteration #  8     ecut=    50.00 Ry     beta= 0.40
     Davidson diagonalization with overlap
     ethr =  7.33E-07,  avg # of iterations =  3.7

     negative rho (up, down):  1.545E-03 0.000E+00

     total cpu time spent up to now is       36.9 secs

     total energy              =    -403.72873648 Ry
     estimated scf accuracy    <       0.00002155 Ry

     iteration #  9     ecut=    50.00 Ry     beta= 0.40
     Davidson diagonalization with overlap
     ethr =  4.49E-08,  avg # of iterations =  3.8

     negative rho (up, down):  1.547E-03 0.000E+00

     total cpu time spent up to now is       40.5 secs

     total energy              =    -403.72874145 Ry
     estimated scf accuracy    <       0.00000210 Ry

     iteration # 10     ecut=    50.00 Ry     beta= 0.40
     Davidson diagonalization with overlap
     ethr =  4.37E-09,  avg # of iterations =  4.8

     negative rho (up, down):  1.548E-03 0.000E+00

     total cpu time spent up to now is       45.0 secs

     total energy              =    -403.72874240 Ry
     estimated scf accuracy    <       0.00000825 Ry

     iteration # 11     ecut=    50.00 Ry     beta= 0.40
     Davidson diagonalization with overlap
     ethr =  4.37E-09,  avg # of iterations =  2.0

     negative rho (up, down):  1.549E-03 0.000E+00

     total cpu time spent up to now is       48.2 secs

     total energy              =    -403.72874168 Ry
     estimated scf accuracy    <       0.00000295 Ry

     iteration # 12     ecut=    50.00 Ry     beta= 0.40
     Davidson diagonalization with overlap
     ethr =  4.37E-09,  avg # of iterations =  4.0

     negative rho (up, down):  1.549E-03 0.000E+00

     total cpu time spent up to now is       52.0 secs

     total energy              =    -403.72874229 Ry
     estimated scf accuracy    <       0.00000008 Ry

     iteration # 13     ecut=    50.00 Ry     beta= 0.40
     Davidson diagonalization with overlap
     ethr =  1.57E-10,  avg # of iterations =  2.2

     negative rho (up, down):  1.549E-03 0.000E+00

     total cpu time spent up to now is       55.3 secs

     total energy              =    -403.72874230 Ry
     estimated scf accuracy    <       0.00000001 Ry

     iteration # 14     ecut=    50.00 Ry     beta= 0.40
     Davidson diagonalization with overlap
     ethr =  2.63E-11,  avg # of iterations =  2.7

     negative rho (up, down):  1.549E-03 0.000E+00

     total cpu time spent up to now is       58.6 secs

     total energy              =    -403.72874230 Ry
     estimated scf accuracy    <          9.9E-09 Ry

     iteration # 15     ecut=    50.00 Ry     beta= 0.40
     Davidson diagonalization with overlap
     ethr =  2.06E-11,  avg # of iterations =  4.0

     negative rho (up, down):  1.549E-03 0.000E+00

     total cpu time spent up to now is       62.2 secs

     End of self-consistent calculation

          k = 0.0000 0.0000 0.0000 (  2577 PWs)   bands (ev):

   -48.1110 -48.0961 -24.5188 -24.5188 -24.3693 -24.3693 -24.3302 -24.3006
    -9.4198  -8.2663  -7.5907  -7.5907   2.8808   3.3571   3.7863   4.8840
     4.8840   6.0367   6.0367   6.6741   7.9076   8.1365   8.1365   8.5827
    10.3657  10.6202  10.9297  11.0132  11.0132

          k = 0.0000 0.0912 0.0000 (  2586 PWs)   bands (ev):

   -48.1103 -48.0969 -24.5130 -24.5124 -24.3763 -24.3758 -24.3287 -24.3020
    -9.3510  -8.2735  -7.6564  -7.6148   3.0103   3.4323   3.9130   4.8916
     4.8973   5.9162   6.0069   6.6845   7.7645   7.7807   7.9712   8.5161
    10.4765  10.7694  11.0762  11.0903  11.1227

          k = 0.0000 0.1823 0.0000 (  2600 PWs)   bands (ev):

   -48.1082 -48.0989 -24.4969 -24.4953 -24.3950 -24.3933 -24.3246 -24.3061
    -9.1560  -8.3412  -7.7820  -7.6790   3.3206   3.6136   4.3170   4.9114
     4.9249   5.6528   5.8672   6.7407   6.9269   7.4813   7.7447   8.2928
    10.7116  10.9848  11.2783  11.3488  11.4178

          k = 0.0000 0.2735 0.0000 (  2600 PWs)   bands (ev):

   -48.1052 -48.1019 -24.4771 -24.4756 -24.4158 -24.4143 -24.3186 -24.3120
    -8.8698  -8.5601  -7.8171  -7.7601   3.6291   3.7444   4.9331   4.9409
     5.0137   5.4781   5.6200   5.9525   6.8905   7.1513   7.7622   7.9958
    10.9293  11.0399  11.4608  11.4997  11.8363

          k = 0.0912 0.0912 0.0000 (  2582 PWs)   bands (ev):

   -48.1096 -48.0975 -24.5209 -24.4943 -24.3954 -24.3680 -24.3274 -24.3033
    -9.2898  -8.2877  -7.7244  -7.6145   3.0461   3.5620   4.0289   4.8715
     4.9268   5.7403   6.0794   6.7017   7.4807   7.6993   7.8695   8.4656
    10.4300  10.9148  11.0167  11.2164  11.3143

          k = 0.0912 0.1823 0.0000 (  2591 PWs)   bands (ev):

   -48.1077 -48.0994 -24.5163 -24.4747 -24.4164 -24.3737 -24.3237 -24.3070
    -9.1167  -8.3735  -7.8100  -7.6625   3.1947   3.7546   4.4003   4.8734
     4.9434   5.5571   6.0156   6.7776   6.9266   7.4815   7.6047   8.2366
    10.5585  11.0378  11.1094  11.4843  11.5366

          k = 0.0912 0.2735 0.0000 (  2600 PWs)   bands (ev):

   -48.1050 -48.1020 -24.5001 -24.4788 -24.4130 -24.3912 -24.3183 -24.3124
    -8.8633  -8.5863  -7.8086  -7.7409   3.4511   3.7061   4.8985   4.9301
     4.9852   5.5394   5.7916   6.2777   6.9473   7.2019   7.6021   7.8881
    10.8044  10.9931  11.3144  11.4836  11.9169

          k = 0.1823 0.1823 0.0000 (  2596 PWs)   bands (ev):

   -48.1064 -48.1006 -24.5255 -24.4799 -24.4120 -24.3651 -24.3211 -24.3096
    -9.0052  -8.4812  -7.8195  -7.6669   3.1238   3.7328   4.6857   4.8437
     4.9268   5.6376   6.2126   6.7918   6.8987   7.3075   7.4378   8.0739
    10.4218  10.9971  11.0251  11.4853  11.8041

          k = 0.1823 0.2735 0.0000 (  2591 PWs)   bands (ev):

   -48.1045 -48.1025 -24.5208 -24.5033 -24.3888 -24.3708 -24.3173 -24.3132
    -8.8403  -8.6518  -7.7764  -7.7126   3.2250   3.4712   4.8479   4.8836
     5.1656   5.6476   6.2857   6.6622   7.0927   7.2508   7.2984   7.7049
    10.5477  10.8058  11.1177  11.3203  12.0928

          k = 0.2735 0.2735 0.0000 (  2604 PWs)   bands (ev):

   -48.1038 -48.1031 -24.5292 -24.5228 -24.3695 -24.3628 -24.3160 -24.3145
    -8.7956  -8.7291  -7.7341  -7.7078   3.1353   3.2302   4.8215   4.8365
     5.5281   5.7895   6.3998   6.6485   7.2523   7.2944   7.3342   7.6006
    10.3965  10.5357  11.0323  11.1214  12.2515

          k = 0.0000 0.0000 0.1429 (  2581 PWs)   bands (ev):

   -48.1029 -48.0895 -24.4979 -24.4979 -24.4122 -24.3865 -24.3653 -24.3653
    -9.2162  -8.1542  -7.6810  -7.6810   3.1704   3.5730   4.0179   4.6598
     4.6598   6.0880   6.4301   6.4301   7.1248   7.7463   7.7463   8.4902
    10.8007  10.8086  10.8142  11.2533  11.2533

          k = 0.0000 0.0912 0.1429 (  2582 PWs)   bands (ev):

   -48.1023 -48.0902 -24.4936 -24.4921 -24.4109 -24.3938 -24.3701 -24.3657
    -9.1533  -8.1550  -7.7448  -7.7011   3.2842   3.6528   4.0893   4.6479
     4.7499   5.9866   6.2767   6.4748   6.9305   7.6587   7.6639   8.4049
    10.8268  10.9262  10.9643  11.2652  11.3734

          k = 0.0000 0.1823 0.1429 (  2599 PWs)   bands (ev):

   -48.1004 -48.0920 -24.4813 -24.4762 -24.4112 -24.4107 -24.3802 -24.3689
    -8.9744  -8.2057  -7.8667  -7.7554   3.5689   3.8509   4.2920   4.6177
     4.9858   5.8873   5.9370   6.3637   6.4794   7.3127   7.6419   8.2226
    10.9575  11.1969  11.1982  11.3537  11.6220

          k = 0.0000 0.2735 0.1429 (  2592 PWs)   bands (ev):

   -48.0977 -48.0947 -24.4635 -24.4569 -24.4302 -24.4228 -24.3817 -24.3752
    -8.7105  -8.4182  -7.8850  -7.8265   3.8710   3.9960   4.5363   4.6035
     5.2574   5.5725   5.8939   6.0430   6.3124   6.7497   7.8132   8.0264
    11.1128  11.2034  11.4820  11.5411  11.8871

          k = 0.0912 0.0912 0.1429 (  2592 PWs)   bands (ev):

   -48.1017 -48.0908 -24.4998 -24.4772 -24.4133 -24.3999 -24.3727 -24.3642
    -9.0969  -8.1624  -7.8075  -7.7033   3.3035   3.7923   4.1362   4.6912
     4.7772   5.8484   6.3193   6.4435   6.7423   7.6237   7.6364   8.3075
    10.7858  10.8667  11.1490  11.4115  11.4269

          k = 0.0912 0.1823 0.1429 (  2597 PWs)   bands (ev):

   -48.1000 -48.0924 -24.4962 -24.4582 -24.4289 -24.4014 -24.3786 -24.3658
    -8.9371  -8.2358  -7.8873  -7.7452   3.4342   4.0040   4.2718   4.6369
     5.0210   5.7569   6.1532   6.2215   6.6467   7.3359   7.5664   8.0978
    10.8708  11.0298  11.2287  11.5478  11.6582

          k = 0.0912 0.2735 0.1429 (  2588 PWs)   bands (ev):

   -48.0975 -48.0948 -24.4826 -24.4626 -24.4258 -24.4084 -24.3792 -24.3722
    -8.7023  -8.4418  -7.8763  -7.8130   3.6870   3.9543   4.4376   4.5669
     5.3673   5.7086   6.0036   6.2591   6.4258   6.7933   7.6730   7.8843
    11.0491  11.1729  11.3328  11.5549  11.8959

          k = 0.1823 0.1823 0.1429 (  2588 PWs)   bands (ev):

   -48.0988 -48.0936 -24.5040 -24.4636 -24.4264 -24.3969 -24.3779 -24.3616
    -8.8316  -8.3390  -7.8894  -7.7523   3.3577   3.9839   4.2830   4.5624
     5.2734   5.9040   6.1225   6.4910   6.5963   7.3296   7.3755   7.8073
    10.7463  11.0437  11.2168  11.5830  11.7773

          k = 0.1823 0.2735 0.1429 (  2596 PWs)   bands (ev):

   -48.0971 -48.0952 -24.5002 -24.4854 -24.4101 -24.3995 -24.3722 -24.3641
    -8.6767  -8.5003  -7.8484  -7.7927   3.4567   3.7071   4.3546   4.4606
     5.6679   6.0095   6.3726   6.5066   6.6394   6.9454   7.3468   7.5344
    10.8579  11.0729  11.1914  11.3873  11.9758

          k = 0.2735 0.2735 0.1429 (  2602 PWs)   bands (ev):

   -48.0965 -48.0958 -24.5074 -24.5021 -24.4017 -24.3983 -24.3632 -24.3595
    -8.6319  -8.5700  -7.8131  -7.7907   3.3662   3.4614   4.3356   4.3752
     6.0848   6.3356   6.5654   6.6518   6.7274   6.9148   7.1187   7.3073
    10.7423  10.8750  11.1483  11.2208  12.0723

          k = 0.0000 0.0000 0.2857 (  2577 PWs)   bands (ev):

   -48.0844 -48.0751 -24.5917 -24.5754 -24.4477 -24.4477 -24.3592 -24.3592
    -8.7133  -7.9387  -7.8831  -7.8831   3.8630   4.0499   4.5675   4.5675
     4.6884   5.0828   5.8485   6.8674   6.8674   6.9291   6.9291   7.9737
    10.7559  11.1113  11.4757  11.7366  11.7366

          k = 0.0000 0.0912 0.2857 (  2583 PWs)   bands (ev):

   -48.0839 -48.0755 -24.5934 -24.5784 -24.4430 -24.4417 -24.3630 -24.3621
    -8.6743  -7.9681  -7.8951  -7.8870   3.9046   4.1352   4.3784   4.5338
     4.9692   5.1567   5.5993   6.7394   6.7813   7.0076   7.0158   8.0044
    10.6865  11.2218  11.5210  11.6353  11.8160

          k = 0.0000 0.1823 0.2857 (  2585 PWs)   bands (ev):

   -48.0826 -48.0768 -24.5963 -24.5853 -24.4304 -24.4267 -24.3734 -24.3706
    -8.5647  -8.0715  -7.9062  -7.8961   4.0311   4.2767   4.3617   4.4547
     5.1436   5.1452   5.4935   6.4784   6.4822   7.0737   7.2564   7.9822
    10.6495  11.3892  11.4737  11.6254  11.9811

          k = 0.0000 0.2735 0.2857 (  2588 PWs)   bands (ev):

   -48.0807 -48.0786 -24.5965 -24.5924 -24.4147 -24.4109 -24.3862 -24.3829
    -8.4060  -8.2295  -7.9092  -7.9052   4.2434   4.2917   4.3458   4.5271
     4.8962   5.1318   5.7782   6.0993   6.5499   6.8959   7.5445   7.8042
    10.8115  11.0962  11.6805  11.7155  12.1238

          k = 0.0912 0.0912 0.2857 (  2586 PWs)   bands (ev):

   -48.0835 -48.0759 -24.5945 -24.5799 -24.4491 -24.4274 -24.3728 -24.3584
    -8.6375  -7.9917  -7.9022  -7.8974   3.8920   4.2504   4.2730   4.5204
     5.1227   5.1733   5.5196   6.5247   6.8202   6.9282   7.1972   8.0215
    10.6505  11.2365  11.5466  11.7008  11.7861

          k = 0.0912 0.1823 0.2857 (  2589 PWs)   bands (ev):

   -48.0823 -48.0771 -24.5958 -24.5845 -24.4448 -24.4113 -24.3857 -24.3611
    -8.5345  -8.0798  -7.9170  -7.9072   3.9477   4.1837   4.3725   4.5172
     4.9496   5.4297   5.5738   6.2990   6.7114   6.9487   7.3328   7.9758
    10.6653  11.3202  11.4528  11.7263  11.9195

          k = 0.0912 0.2735 0.2857 (  2587 PWs)   bands (ev):

   -48.0806 -48.0787 -24.5947 -24.5904 -24.4314 -24.4145 -24.3831 -24.3701
    -8.3861  -8.2229  -7.9209  -7.9165   4.1069   4.1900   4.2910   4.4278
     4.9909   5.2763   5.9197   6.2534   6.5899   6.8584   7.5181   7.7769
    10.8552  11.1413  11.5512  11.7040  12.0440

          k = 0.1823 0.1823 0.2857 (  2581 PWs)   bands (ev):

   -48.0815 -48.0779 -24.5939 -24.5839 -24.4523 -24.4153 -24.3824 -24.3567
    -8.4507  -8.1194  -7.9445  -7.9238   3.8852   4.0754   4.2285   4.4704
     4.9889   5.6111   5.8686   6.2888   6.7676   6.9309   7.3368   7.8975
    10.7693  11.2524  11.4859  11.7383  11.7836

          k = 0.1823 0.2735 0.2857 (  2589 PWs)   bands (ev):

   -48.0803 -48.0790 -24.5902 -24.5861 -24.4478 -24.4334 -24.3687 -24.3594
    -8.3331  -8.2108  -7.9529  -7.9418   3.9425   4.0571   4.0910   4.2040
     5.2550   5.5023   6.2287   6.4317   6.7430   6.8390   7.4253   7.6845
    11.0007  11.2489  11.4110  11.5646  11.8410

          k = 0.2735 0.2735 0.2857 (  2583 PWs)   bands (ev):

   -48.0799 -48.0794 -24.5853 -24.5834 -24.4549 -24.4492 -24.3586 -24.3554
    -8.2665  -8.2185  -7.9777  -7.9695   3.8742   3.9369   3.9904   4.0296
     5.4985   5.6031   6.4399   6.5137   6.8545   6.9389   7.3653   7.5237
    11.2388  11.2860  11.3771  11.4644  11.6414

          k = 0.0000 0.0000 0.4286 (  2580 PWs)   bands (ev):

   -48.0681 -48.0648 -24.7300 -24.7246 -24.3973 -24.3973 -24.3639 -24.3639
    -8.1764  -8.0445  -8.0445  -7.8867   4.1891   4.2415   4.8344   4.8344
     4.8415   5.1234   5.7146   6.0034   6.0034   6.9200   7.1433   7.1433
    11.1425  11.4932  11.7785  11.8007  12.0789

          k = 0.0000 0.0912 0.4286 (  2573 PWs)   bands (ev):

   -48.0679 -48.0649 -24.7315 -24.7265 -24.3951 -24.3944 -24.3652 -24.3645
    -8.2450  -8.1260  -7.9582  -7.8156   4.1278   4.2046   4.4496   4.6946
     5.1250   5.2492   5.8718   6.0664   6.1284   7.0529   7.0837   7.0903
    10.9827  11.5105  11.5411  11.7957  12.1482

          k = 0.0000 0.1823 0.4286 (  2584 PWs)   bands (ev):

   -48.0674 -48.0654 -24.7346 -24.7311 -24.3894 -24.3870 -24.3689 -24.3665
    -8.3185  -8.2384  -7.8366  -7.7349   3.8715   3.9931   4.4269   4.6577
     5.0992   5.5438   5.7714   6.2905   6.5883   6.8315   7.0266   7.4443
    10.6519  11.0692  11.6143  11.7856  12.2598

          k = 0.0000 0.2735 0.4286 (  2596 PWs)   bands (ev):

   -48.0668 -48.0660 -24.7366 -24.7353 -24.3823 -24.3790 -24.3740 -24.3708
    -8.3455  -8.3174  -7.7447  -7.7076   3.7225   3.7752   4.5304   4.6378
     5.2202   5.4848   5.9108   6.2270   6.6887   6.7328   7.3752   7.6377
    10.4529  10.6345  11.7000  11.7585  12.3269

          k = 0.0912 0.0912 0.4286 (  2570 PWs)   bands (ev):

   -48.0678 -48.0651 -24.7332 -24.7269 -24.3980 -24.3876 -24.3679 -24.3639
    -8.2993  -8.0613  -8.0185  -7.7598   3.9707   4.3413   4.4325   4.5329
     4.8349   5.6197   5.9205   6.1547   6.1959   6.9140   7.1563   7.2206
    10.8480  11.5256  11.5550  11.7705  11.9297

          k = 0.0912 0.1823 0.4286 (  2578 PWs)   bands (ev):

   -48.0673 -48.0655 -24.7356 -24.7292 -24.3960 -24.3797 -24.3730 -24.3646
    -8.3438  -8.1699  -7.9023  -7.7097   3.7843   4.0943   4.4221   4.6558
     4.7417   5.7945   5.8263   6.2086   6.5275   6.9604   7.1298   7.5318
    10.6030  11.1779  11.6216  11.7655  11.9925

          k = 0.0912 0.2735 0.4286 (  2601 PWs)   bands (ev):

   -48.0667 -48.0660 -24.7356 -24.7330 -24.3896 -24.3816 -24.3717 -24.3671
    -8.3359  -8.2742  -7.7874  -7.7179   3.7084   3.8125   4.4930   4.5924
     5.0569   5.4620   5.9756   6.1205   6.7520   6.9246   7.4505   7.6931
    10.5026  10.7356  11.6924  11.7452  12.1679

          k = 0.1823 0.1823 0.4286 (  2588 PWs)   bands (ev):

   -48.0670 -48.0657 -24.7350 -24.7278 -24.3996 -24.3818 -24.3716 -24.3637
    -8.3394  -8.0987  -7.9696  -7.7124   3.7027   4.1641   4.3029   4.4538
     4.7345   5.7314   5.9320   6.0294   6.7439   7.2059   7.2652   7.7278
    10.5606  11.3139  11.6125  11.6578  11.8074

          k = 0.1823 0.2735 0.4286 (  2603 PWs)   bands (ev):

   -48.0666 -48.0661 -24.7322 -24.7290 -24.3975 -24.3905 -24.3669 -24.3644
    -8.2829  -8.1861  -7.8750  -7.7713   3.7236   3.8938   4.3399   4.4005
     4.9836   5.3548   5.9699   6.0118   7.0028   7.1624   7.6138   7.8090
    10.6688  10.9868  11.6798  11.7112  11.8776

          k = 0.2735 0.2735 0.4286 (  2583 PWs)   bands (ev):

   -48.0664 -48.0663 -24.7283 -24.7268 -24.4009 -24.3981 -24.3643 -24.3635
    -8.1948  -8.1281  -7.9309  -7.8615   3.8191   3.9721   4.1069   4.2233
     5.0728   5.2107   5.9393   5.9655   7.2166   7.2777   7.7808   7.8636
    10.9446  11.1815  11.6253  11.6834  11.7069

     the Fermi energy is     9.4460 ev

!    total energy              =    -403.72874230 Ry
     estimated scf accuracy    <          2.3E-10 Ry
     smearing contrib. (-TS)   =       0.00000051 Ry
     internal energy E=F+TS    =    -403.72874280 Ry

     The total energy is F=E-TS. E is the sum of the following terms:
     one-electron contribution =    -127.42223284 Ry
     hartree contribution      =      86.54659276 Ry
     xc contribution           =     -64.91738447 Ry
     ewald contribution        =    -261.50751559 Ry
     one-center paw contrib.   =     -36.42820267 Ry

     convergence has been achieved in  15 iterations

     negative rho (up, down):  1.549E-03 0.000E+00

     Forces acting on atoms (cartesian axes, Ry/au):

     atom    1 type  2   force =     0.00000000    0.00000000   -0.00000000
     atom    2 type  2   force =     0.00000000    0.00000000    0.00000000
     atom    3 type  1   force =    -0.00461427    0.00461427    0.00000000
     atom    4 type  1   force =     0.00461427   -0.00461427    0.00000000
     atom    5 type  1   force =     0.00461427    0.00461427    0.00000000
     atom    6 type  1   force =    -0.00461427   -0.00461427    0.00000000

     Total force =     0.013051     Total SCF correction =     0.000003


     Computing stress (Cartesian axis) and pressure


     negative rho (up, down):  1.549E-03 0.000E+00
          total   stress  (Ry/bohr**3)                   (kbar)     P=      -83.57
  -0.00053543   0.00000000   0.00000000          -78.76        0.00        0.00
   0.00000000  -0.00053543   0.00000000            0.00      -78.76        0.00
   0.00000000   0.00000000  -0.00063339            0.00        0.00      -93.18


     Writing all to output data dir ../tmp/tio.save/

     init_run     :      2.84s CPU      3.06s WALL (       1 calls)
     electrons    :     57.21s CPU     58.93s WALL (       1 calls)
     forces       :      0.83s CPU      0.88s WALL (       1 calls)
     stress       :      3.29s CPU      3.45s WALL (       1 calls)

     Called by init_run:
     wfcinit      :      1.31s CPU      1.35s WALL (       1 calls)
     potinit      :      0.44s CPU      0.46s WALL (       1 calls)
     hinit0       :      0.85s CPU      0.94s WALL (       1 calls)

     Called by electrons:
     c_bands      :     43.15s CPU     43.51s WALL (      15 calls)
     sum_band     :      8.70s CPU      9.44s WALL (      15 calls)
     v_of_rho     :      0.66s CPU      0.68s WALL (      16 calls)
     newd         :      3.31s CPU      3.94s WALL (      16 calls)
     PAW_pot      :      1.38s CPU      1.39s WALL (      16 calls)
     mix_rho      :      0.30s CPU      0.31s WALL (      15 calls)

     Called by c_bands:
     init_us_2    :      0.97s CPU      0.98s WALL (    1320 calls)
     init_us_2:cp :      0.97s CPU      0.98s WALL (    1320 calls)
     cegterg      :     40.88s CPU     41.22s WALL (     600 calls)

     Called by *egterg:
     cdiaghg      :      1.89s CPU      1.92s WALL (    2982 calls)
     h_psi        :     29.54s CPU     29.81s WALL (    3022 calls)
     s_psi        :      1.72s CPU      1.73s WALL (    3022 calls)
     g_psi        :      0.30s CPU      0.30s WALL (    2382 calls)

     Called by h_psi:
     h_psi:calbec :      3.28s CPU      3.31s WALL (    3022 calls)
     vloc_psi     :     24.21s CPU     24.43s WALL (    3022 calls)
     add_vuspsi   :      1.82s CPU      1.84s WALL (    3022 calls)

     General routines
     calbec       :      4.41s CPU      4.46s WALL (    3822 calls)
     fft          :      0.61s CPU      0.67s WALL (     231 calls)
     ffts         :      0.36s CPU      0.36s WALL (     353 calls)
     fftw         :     23.63s CPU     23.86s WALL (  118110 calls)
     interpolate  :      0.27s CPU      0.27s WALL (      16 calls)

     Parallel routines

     PWSCF        :   1m 4.33s CPU   1m 6.60s WALL


   This run was terminated on:  16:34:14  14Nov2022            

=------------------------------------------------------------------------------=
   JOB DONE.
=------------------------------------------------------------------------------=
