
             +---------------------------------------------------+
             |                                                   |
             |                   WANNIER90                       |
             |                                                   |
             +---------------------------------------------------+
             |                                                   |
             |        Welcome to the Maximally-Localized         |
             |        Generalized Wannier Functions code         |
             |            http://www.wannier.org                 |
             |                                                   |
             |                                                   |
             |  Wannier90 Developer Group:                       |
             |    Giovanni Pizzi    (EPFL)                       |
             |    Valerio Vitale    (Cambridge)                  |
             |    David Vanderbilt  (Rutgers University)         |
             |    Nicola Marzari    (EPFL)                       |
             |    Ivo Souza         (Universidad del Pais Vasco) |
             |    Arash A. Mostofi  (Imperial College London)    |
             |    Jonathan R. Yates (University of Oxford)       |
             |                                                   |
             |  For the full list of Wannier90 3.x authors,      |
             |  please check the code documentation and the      |
             |  README on the GitHub page of the code            |
             |                                                   |
             |                                                   |
             |  Please cite                                      |
             |                                                   |
             |  [ref] "Wannier90 as a community code:            |
             |        new features and applications",            |
             |        G. Pizzi et al., J. Phys. Cond. Matt. 32,  |
             |        165902 (2020).                             |
             |        http://doi.org/10.1088/1361-648X/ab51ff    |
             |                                                   |
             |  in any publications arising from the use of      |
             |  this code. For the method please cite            |
             |                                                   |
             |  [ref] "Maximally Localized Generalised Wannier   |
             |         Functions for Composite Energy Bands"     |
             |         N. Marzari and D. Vanderbilt              |
             |         Phys. Rev. B 56 12847 (1997)              |
             |                                                   |
             |  [ref] "Maximally Localized Wannier Functions     |
             |         for Entangled Energy Bands"               |
             |         I. Souza, N. Marzari and D. Vanderbilt    |
             |         Phys. Rev. B 65 035109 (2001)             |
             |                                                   |
             |                                                   |
             | Copyright (c) 1996-2020                           |
             |        The Wannier90 Developer Group and          |
             |        individual contributors                    |
             |                                                   |
             |      Release: 3.1.0        5th March    2020      |
             |                                                   |
             | This program is free software; you can            |
             | redistribute it and/or modify it under the terms  |
             | of the GNU General Public License as published by |
             | the Free Software Foundation; either version 2 of |
             | the License, or (at your option) any later version|
             |                                                   |
             | This program is distributed in the hope that it   |
             | will be useful, but WITHOUT ANY WARRANTY; without |
             | even the implied warranty of MERCHANTABILITY or   |
             | FITNESS FOR A PARTICULAR PURPOSE. See the GNU     |
             | General Public License for more details.          |
             |                                                   |
             | You should have received a copy of the GNU General|
             | Public License along with this program; if not,   |
             | write to the Free Software Foundation, Inc.,      |
             | 675 Mass Ave, Cambridge, MA 02139, USA.           |
             |                                                   |
             +---------------------------------------------------+
             |    Execution started on 14Nov2022 at 22:48:01     |
             +---------------------------------------------------+
 
 ******************************************************************************
 * -> Using CODATA 2006 constant values                                       *
 *    (http://physics.nist.gov/cuu/Constants/index.html)                      *
 * -> Using Bohr value from CODATA                                            *
 ******************************************************************************
 

 Running in serial (with serial executable)

                                    ------
                                    SYSTEM
                                    ------

                              Lattice Vectors (Ang)
                    a_1    -0.000000  -0.000000   2.969203
                    a_2     4.653272  -0.000000   0.000000
                    a_3     0.000000   4.653272   0.000000

                   Unit Cell Volume:      64.29198  (Ang^3)

                        Reciprocal-Space Vectors (Ang^-1)
                    b_1    -0.000000   0.000000   2.116118
                    b_2     1.350273  -0.000000   0.000000
                    b_3     0.000000   1.350273   0.000000
  
 *----------------------------------------------------------------------------*
 |   Site       Fractional Coordinate          Cartesian Coordinate (Ang)     |
 +----------------------------------------------------------------------------+
 | Ti   1   0.16840   0.10745   0.10745   |    0.50000   0.50000   0.50000    |
 | Ti   2   0.00000   0.00000   0.00000   |    0.00000   0.00000   0.00000    |
 | O    1   0.27098   0.10745   0.04200   |    0.50000   0.19542   0.80458    |
 | O    2   0.06582   0.10745   0.17291   |    0.50000   0.80458   0.19542    |
 | O    3   0.10258   0.00000   0.06546   |    0.00000   0.30458   0.30458    |
 | O    4   0.23421   0.00000   0.14945   |    0.00000   0.69542   0.69542    |
 *----------------------------------------------------------------------------*
                                -----------
                                PROJECTIONS
                                -----------
  
 +----------------------------------------------------------------------------+
 |     Frac. Coord.   l mr  r        z-axis               x-axis          Z/a |
 +----------------------------------------------------------------------------+
 |  0.17  0.11  0.11  2  1  1  0.000  0.000  1.000  1.000  0.000  0.000   1.0 |
 |  0.17  0.11  0.11  2  2  1  0.000  0.000  1.000  1.000  0.000  0.000   1.0 |
 |  0.17  0.11  0.11  2  3  1  0.000  0.000  1.000  1.000  0.000  0.000   1.0 |
 |  0.17  0.11  0.11  2  4  1  0.000  0.000  1.000  1.000  0.000  0.000   1.0 |
 |  0.17  0.11  0.11  2  5  1  0.000  0.000  1.000  1.000  0.000  0.000   1.0 |
 |  0.00  0.00  0.00  2  1  1  0.000  0.000  1.000  1.000  0.000  0.000   1.0 |
 |  0.00  0.00  0.00  2  2  1  0.000  0.000  1.000  1.000  0.000  0.000   1.0 |
 |  0.00  0.00  0.00  2  3  1  0.000  0.000  1.000  1.000  0.000  0.000   1.0 |
 |  0.00  0.00  0.00  2  4  1  0.000  0.000  1.000  1.000  0.000  0.000   1.0 |
 |  0.00  0.00  0.00  2  5  1  0.000  0.000  1.000  1.000  0.000  0.000   1.0 |
 |  0.27  0.11  0.04  1  1  1  0.000  0.000  1.000  1.000  0.000  0.000   1.0 |
 |  0.27  0.11  0.04  1  2  1  0.000  0.000  1.000  1.000  0.000  0.000   1.0 |
 |  0.27  0.11  0.04  1  3  1  0.000  0.000  1.000  1.000  0.000  0.000   1.0 |
 |  0.07  0.11  0.17  1  1  1  0.000  0.000  1.000  1.000  0.000  0.000   1.0 |
 |  0.07  0.11  0.17  1  2  1  0.000  0.000  1.000  1.000  0.000  0.000   1.0 |
 |  0.07  0.11  0.17  1  3  1  0.000  0.000  1.000  1.000  0.000  0.000   1.0 |
 |  0.10  0.00  0.07  1  1  1  0.000  0.000  1.000  1.000  0.000  0.000   1.0 |
 |  0.10  0.00  0.07  1  2  1  0.000  0.000  1.000  1.000  0.000  0.000   1.0 |
 |  0.10  0.00  0.07  1  3  1  0.000  0.000  1.000  1.000  0.000  0.000   1.0 |
 |  0.23  0.00  0.15  1  1  1  0.000  0.000  1.000  1.000  0.000  0.000   1.0 |
 |  0.23  0.00  0.15  1  2  1  0.000  0.000  1.000  1.000  0.000  0.000   1.0 |
 |  0.23  0.00  0.15  1  3  1  0.000  0.000  1.000  1.000  0.000  0.000   1.0 |
 +----------------------------------------------------------------------------+
  
                                ------------
                                K-POINT GRID
                                ------------
  
             Grid size =  7 x  7 x  7      Total points =  343
  
 *----------------------------------------------------------------------------*
 | k-point      Fractional Coordinate        Cartesian Coordinate (Ang^-1)    |
 +----------------------------------------------------------------------------+
 |     1    0.00000   0.00000   0.00000   |    0.00000   0.00000   0.00000    |
 |     2    0.00000   0.00000   0.14286   |    0.00000   0.19290   0.00000    |
 |     3    0.00000   0.00000   0.28571   |    0.00000   0.38579   0.00000    |
 |     4    0.00000   0.00000   0.42857   |    0.00000   0.57869   0.00000    |
 |     5    0.00000   0.00000   0.57143   |    0.00000   0.77158   0.00000    |
 |     6    0.00000   0.00000   0.71429   |    0.00000   0.96448   0.00000    |
 |     7    0.00000   0.00000   0.85714   |    0.00000   1.15738   0.00000    |
 |     8    0.00000   0.14286   0.00000   |    0.19290   0.00000   0.00000    |
 |     9    0.00000   0.14286   0.14286   |    0.19290   0.19290   0.00000    |
 |    10    0.00000   0.14286   0.28571   |    0.19290   0.38579   0.00000    |
 |    11    0.00000   0.14286   0.42857   |    0.19290   0.57869   0.00000    |
 |    12    0.00000   0.14286   0.57143   |    0.19290   0.77158   0.00000    |
 |    13    0.00000   0.14286   0.71429   |    0.19290   0.96448   0.00000    |
 |    14    0.00000   0.14286   0.85714   |    0.19290   1.15738   0.00000    |
 |    15    0.00000   0.28571   0.00000   |    0.38579   0.00000   0.00000    |
 |    16    0.00000   0.28571   0.14286   |    0.38579   0.19290   0.00000    |
 |    17    0.00000   0.28571   0.28571   |    0.38579   0.38579   0.00000    |
 |    18    0.00000   0.28571   0.42857   |    0.38579   0.57869   0.00000    |
 |    19    0.00000   0.28571   0.57143   |    0.38579   0.77158   0.00000    |
 |    20    0.00000   0.28571   0.71429   |    0.38579   0.96448   0.00000    |
 |    21    0.00000   0.28571   0.85714   |    0.38579   1.15738   0.00000    |
 |    22    0.00000   0.42857   0.00000   |    0.57869   0.00000   0.00000    |
 |    23    0.00000   0.42857   0.14286   |    0.57869   0.19290   0.00000    |
 |    24    0.00000   0.42857   0.28571   |    0.57869   0.38579   0.00000    |
 |    25    0.00000   0.42857   0.42857   |    0.57869   0.57869   0.00000    |
 |    26    0.00000   0.42857   0.57143   |    0.57869   0.77158   0.00000    |
 |    27    0.00000   0.42857   0.71429   |    0.57869   0.96448   0.00000    |
 |    28    0.00000   0.42857   0.85714   |    0.57869   1.15738   0.00000    |
 |    29    0.00000   0.57143   0.00000   |    0.77158   0.00000   0.00000    |
 |    30    0.00000   0.57143   0.14286   |    0.77158   0.19290   0.00000    |
 |    31    0.00000   0.57143   0.28571   |    0.77158   0.38579   0.00000    |
 |    32    0.00000   0.57143   0.42857   |    0.77158   0.57869   0.00000    |
 |    33    0.00000   0.57143   0.57143   |    0.77158   0.77158   0.00000    |
 |    34    0.00000   0.57143   0.71429   |    0.77158   0.96448   0.00000    |
 |    35    0.00000   0.57143   0.85714   |    0.77158   1.15738   0.00000    |
 |    36    0.00000   0.71429   0.00000   |    0.96448   0.00000   0.00000    |
 |    37    0.00000   0.71429   0.14286   |    0.96448   0.19290   0.00000    |
 |    38    0.00000   0.71429   0.28571   |    0.96448   0.38579   0.00000    |
 |    39    0.00000   0.71429   0.42857   |    0.96448   0.57869   0.00000    |
 |    40    0.00000   0.71429   0.57143   |    0.96448   0.77158   0.00000    |
 |    41    0.00000   0.71429   0.71429   |    0.96448   0.96448   0.00000    |
 |    42    0.00000   0.71429   0.85714   |    0.96448   1.15738   0.00000    |
 |    43    0.00000   0.85714   0.00000   |    1.15738   0.00000   0.00000    |
 |    44    0.00000   0.85714   0.14286   |    1.15738   0.19290   0.00000    |
 |    45    0.00000   0.85714   0.28571   |    1.15738   0.38579   0.00000    |
 |    46    0.00000   0.85714   0.42857   |    1.15738   0.57869   0.00000    |
 |    47    0.00000   0.85714   0.57143   |    1.15738   0.77158   0.00000    |
 |    48    0.00000   0.85714   0.71429   |    1.15738   0.96448   0.00000    |
 |    49    0.00000   0.85714   0.85714   |    1.15738   1.15738   0.00000    |
 |    50    0.14286   0.00000   0.00000   |    0.00000   0.00000   0.30230    |
 |    51    0.14286   0.00000   0.14286   |    0.00000   0.19290   0.30230    |
 |    52    0.14286   0.00000   0.28571   |    0.00000   0.38579   0.30230    |
 |    53    0.14286   0.00000   0.42857   |    0.00000   0.57869   0.30230    |
 |    54    0.14286   0.00000   0.57143   |    0.00000   0.77158   0.30230    |
 |    55    0.14286   0.00000   0.71429   |    0.00000   0.96448   0.30230    |
 |    56    0.14286   0.00000   0.85714   |    0.00000   1.15738   0.30230    |
 |    57    0.14286   0.14286   0.00000   |    0.19290   0.00000   0.30230    |
 |    58    0.14286   0.14286   0.14286   |    0.19290   0.19290   0.30230    |
 |    59    0.14286   0.14286   0.28571   |    0.19290   0.38579   0.30230    |
 |    60    0.14286   0.14286   0.42857   |    0.19290   0.57869   0.30230    |
 |    61    0.14286   0.14286   0.57143   |    0.19290   0.77158   0.30230    |
 |    62    0.14286   0.14286   0.71429   |    0.19290   0.96448   0.30230    |
 |    63    0.14286   0.14286   0.85714   |    0.19290   1.15738   0.30230    |
 |    64    0.14286   0.28571   0.00000   |    0.38579   0.00000   0.30230    |
 |    65    0.14286   0.28571   0.14286   |    0.38579   0.19290   0.30230    |
 |    66    0.14286   0.28571   0.28571   |    0.38579   0.38579   0.30230    |
 |    67    0.14286   0.28571   0.42857   |    0.38579   0.57869   0.30230    |
 |    68    0.14286   0.28571   0.57143   |    0.38579   0.77158   0.30230    |
 |    69    0.14286   0.28571   0.71429   |    0.38579   0.96448   0.30230    |
 |    70    0.14286   0.28571   0.85714   |    0.38579   1.15738   0.30230    |
 |    71    0.14286   0.42857   0.00000   |    0.57869   0.00000   0.30230    |
 |    72    0.14286   0.42857   0.14286   |    0.57869   0.19290   0.30230    |
 |    73    0.14286   0.42857   0.28571   |    0.57869   0.38579   0.30230    |
 |    74    0.14286   0.42857   0.42857   |    0.57869   0.57869   0.30230    |
 |    75    0.14286   0.42857   0.57143   |    0.57869   0.77158   0.30230    |
 |    76    0.14286   0.42857   0.71429   |    0.57869   0.96448   0.30230    |
 |    77    0.14286   0.42857   0.85714   |    0.57869   1.15738   0.30230    |
 |    78    0.14286   0.57143   0.00000   |    0.77158   0.00000   0.30230    |
 |    79    0.14286   0.57143   0.14286   |    0.77158   0.19290   0.30230    |
 |    80    0.14286   0.57143   0.28571   |    0.77158   0.38579   0.30230    |
 |    81    0.14286   0.57143   0.42857   |    0.77158   0.57869   0.30230    |
 |    82    0.14286   0.57143   0.57143   |    0.77158   0.77158   0.30230    |
 |    83    0.14286   0.57143   0.71429   |    0.77158   0.96448   0.30230    |
 |    84    0.14286   0.57143   0.85714   |    0.77158   1.15738   0.30230    |
 |    85    0.14286   0.71429   0.00000   |    0.96448   0.00000   0.30230    |
 |    86    0.14286   0.71429   0.14286   |    0.96448   0.19290   0.30230    |
 |    87    0.14286   0.71429   0.28571   |    0.96448   0.38579   0.30230    |
 |    88    0.14286   0.71429   0.42857   |    0.96448   0.57869   0.30230    |
 |    89    0.14286   0.71429   0.57143   |    0.96448   0.77158   0.30230    |
 |    90    0.14286   0.71429   0.71429   |    0.96448   0.96448   0.30230    |
 |    91    0.14286   0.71429   0.85714   |    0.96448   1.15738   0.30230    |
 |    92    0.14286   0.85714   0.00000   |    1.15738   0.00000   0.30230    |
 |    93    0.14286   0.85714   0.14286   |    1.15738   0.19290   0.30230    |
 |    94    0.14286   0.85714   0.28571   |    1.15738   0.38579   0.30230    |
 |    95    0.14286   0.85714   0.42857   |    1.15738   0.57869   0.30230    |
 |    96    0.14286   0.85714   0.57143   |    1.15738   0.77158   0.30230    |
 |    97    0.14286   0.85714   0.71429   |    1.15738   0.96448   0.30230    |
 |    98    0.14286   0.85714   0.85714   |    1.15738   1.15738   0.30230    |
 |    99    0.28571   0.00000   0.00000   |    0.00000   0.00000   0.60461    |
 |   100    0.28571   0.00000   0.14286   |    0.00000   0.19290   0.60461    |
 |   101    0.28571   0.00000   0.28571   |    0.00000   0.38579   0.60461    |
 |   102    0.28571   0.00000   0.42857   |    0.00000   0.57869   0.60461    |
 |   103    0.28571   0.00000   0.57143   |    0.00000   0.77158   0.60461    |
 |   104    0.28571   0.00000   0.71429   |    0.00000   0.96448   0.60461    |
 |   105    0.28571   0.00000   0.85714   |    0.00000   1.15738   0.60461    |
 |   106    0.28571   0.14286   0.00000   |    0.19290   0.00000   0.60461    |
 |   107    0.28571   0.14286   0.14286   |    0.19290   0.19290   0.60461    |
 |   108    0.28571   0.14286   0.28571   |    0.19290   0.38579   0.60461    |
 |   109    0.28571   0.14286   0.42857   |    0.19290   0.57869   0.60461    |
 |   110    0.28571   0.14286   0.57143   |    0.19290   0.77158   0.60461    |
 |   111    0.28571   0.14286   0.71429   |    0.19290   0.96448   0.60461    |
 |   112    0.28571   0.14286   0.85714   |    0.19290   1.15738   0.60461    |
 |   113    0.28571   0.28571   0.00000   |    0.38579   0.00000   0.60461    |
 |   114    0.28571   0.28571   0.14286   |    0.38579   0.19290   0.60461    |
 |   115    0.28571   0.28571   0.28571   |    0.38579   0.38579   0.60461    |
 |   116    0.28571   0.28571   0.42857   |    0.38579   0.57869   0.60461    |
 |   117    0.28571   0.28571   0.57143   |    0.38579   0.77158   0.60461    |
 |   118    0.28571   0.28571   0.71429   |    0.38579   0.96448   0.60461    |
 |   119    0.28571   0.28571   0.85714   |    0.38579   1.15738   0.60461    |
 |   120    0.28571   0.42857   0.00000   |    0.57869   0.00000   0.60461    |
 |   121    0.28571   0.42857   0.14286   |    0.57869   0.19290   0.60461    |
 |   122    0.28571   0.42857   0.28571   |    0.57869   0.38579   0.60461    |
 |   123    0.28571   0.42857   0.42857   |    0.57869   0.57869   0.60461    |
 |   124    0.28571   0.42857   0.57143   |    0.57869   0.77158   0.60461    |
 |   125    0.28571   0.42857   0.71429   |    0.57869   0.96448   0.60461    |
 |   126    0.28571   0.42857   0.85714   |    0.57869   1.15738   0.60461    |
 |   127    0.28571   0.57143   0.00000   |    0.77158   0.00000   0.60461    |
 |   128    0.28571   0.57143   0.14286   |    0.77158   0.19290   0.60461    |
 |   129    0.28571   0.57143   0.28571   |    0.77158   0.38579   0.60461    |
 |   130    0.28571   0.57143   0.42857   |    0.77158   0.57869   0.60461    |
 |   131    0.28571   0.57143   0.57143   |    0.77158   0.77158   0.60461    |
 |   132    0.28571   0.57143   0.71429   |    0.77158   0.96448   0.60461    |
 |   133    0.28571   0.57143   0.85714   |    0.77158   1.15738   0.60461    |
 |   134    0.28571   0.71429   0.00000   |    0.96448   0.00000   0.60461    |
 |   135    0.28571   0.71429   0.14286   |    0.96448   0.19290   0.60461    |
 |   136    0.28571   0.71429   0.28571   |    0.96448   0.38579   0.60461    |
 |   137    0.28571   0.71429   0.42857   |    0.96448   0.57869   0.60461    |
 |   138    0.28571   0.71429   0.57143   |    0.96448   0.77158   0.60461    |
 |   139    0.28571   0.71429   0.71429   |    0.96448   0.96448   0.60461    |
 |   140    0.28571   0.71429   0.85714   |    0.96448   1.15738   0.60461    |
 |   141    0.28571   0.85714   0.00000   |    1.15738   0.00000   0.60461    |
 |   142    0.28571   0.85714   0.14286   |    1.15738   0.19290   0.60461    |
 |   143    0.28571   0.85714   0.28571   |    1.15738   0.38579   0.60461    |
 |   144    0.28571   0.85714   0.42857   |    1.15738   0.57869   0.60461    |
 |   145    0.28571   0.85714   0.57143   |    1.15738   0.77158   0.60461    |
 |   146    0.28571   0.85714   0.71429   |    1.15738   0.96448   0.60461    |
 |   147    0.28571   0.85714   0.85714   |    1.15738   1.15738   0.60461    |
 |   148    0.42857   0.00000   0.00000   |    0.00000   0.00000   0.90691    |
 |   149    0.42857   0.00000   0.14286   |    0.00000   0.19290   0.90691    |
 |   150    0.42857   0.00000   0.28571   |    0.00000   0.38579   0.90691    |
 |   151    0.42857   0.00000   0.42857   |    0.00000   0.57869   0.90691    |
 |   152    0.42857   0.00000   0.57143   |    0.00000   0.77158   0.90691    |
 |   153    0.42857   0.00000   0.71429   |    0.00000   0.96448   0.90691    |
 |   154    0.42857   0.00000   0.85714   |    0.00000   1.15738   0.90691    |
 |   155    0.42857   0.14286   0.00000   |    0.19290   0.00000   0.90691    |
 |   156    0.42857   0.14286   0.14286   |    0.19290   0.19290   0.90691    |
 |   157    0.42857   0.14286   0.28571   |    0.19290   0.38579   0.90691    |
 |   158    0.42857   0.14286   0.42857   |    0.19290   0.57869   0.90691    |
 |   159    0.42857   0.14286   0.57143   |    0.19290   0.77158   0.90691    |
 |   160    0.42857   0.14286   0.71429   |    0.19290   0.96448   0.90691    |
 |   161    0.42857   0.14286   0.85714   |    0.19290   1.15738   0.90691    |
 |   162    0.42857   0.28571   0.00000   |    0.38579   0.00000   0.90691    |
 |   163    0.42857   0.28571   0.14286   |    0.38579   0.19290   0.90691    |
 |   164    0.42857   0.28571   0.28571   |    0.38579   0.38579   0.90691    |
 |   165    0.42857   0.28571   0.42857   |    0.38579   0.57869   0.90691    |
 |   166    0.42857   0.28571   0.57143   |    0.38579   0.77158   0.90691    |
 |   167    0.42857   0.28571   0.71429   |    0.38579   0.96448   0.90691    |
 |   168    0.42857   0.28571   0.85714   |    0.38579   1.15738   0.90691    |
 |   169    0.42857   0.42857   0.00000   |    0.57869   0.00000   0.90691    |
 |   170    0.42857   0.42857   0.14286   |    0.57869   0.19290   0.90691    |
 |   171    0.42857   0.42857   0.28571   |    0.57869   0.38579   0.90691    |
 |   172    0.42857   0.42857   0.42857   |    0.57869   0.57869   0.90691    |
 |   173    0.42857   0.42857   0.57143   |    0.57869   0.77158   0.90691    |
 |   174    0.42857   0.42857   0.71429   |    0.57869   0.96448   0.90691    |
 |   175    0.42857   0.42857   0.85714   |    0.57869   1.15738   0.90691    |
 |   176    0.42857   0.57143   0.00000   |    0.77158   0.00000   0.90691    |
 |   177    0.42857   0.57143   0.14286   |    0.77158   0.19290   0.90691    |
 |   178    0.42857   0.57143   0.28571   |    0.77158   0.38579   0.90691    |
 |   179    0.42857   0.57143   0.42857   |    0.77158   0.57869   0.90691    |
 |   180    0.42857   0.57143   0.57143   |    0.77158   0.77158   0.90691    |
 |   181    0.42857   0.57143   0.71429   |    0.77158   0.96448   0.90691    |
 |   182    0.42857   0.57143   0.85714   |    0.77158   1.15738   0.90691    |
 |   183    0.42857   0.71429   0.00000   |    0.96448   0.00000   0.90691    |
 |   184    0.42857   0.71429   0.14286   |    0.96448   0.19290   0.90691    |
 |   185    0.42857   0.71429   0.28571   |    0.96448   0.38579   0.90691    |
 |   186    0.42857   0.71429   0.42857   |    0.96448   0.57869   0.90691    |
 |   187    0.42857   0.71429   0.57143   |    0.96448   0.77158   0.90691    |
 |   188    0.42857   0.71429   0.71429   |    0.96448   0.96448   0.90691    |
 |   189    0.42857   0.71429   0.85714   |    0.96448   1.15738   0.90691    |
 |   190    0.42857   0.85714   0.00000   |    1.15738   0.00000   0.90691    |
 |   191    0.42857   0.85714   0.14286   |    1.15738   0.19290   0.90691    |
 |   192    0.42857   0.85714   0.28571   |    1.15738   0.38579   0.90691    |
 |   193    0.42857   0.85714   0.42857   |    1.15738   0.57869   0.90691    |
 |   194    0.42857   0.85714   0.57143   |    1.15738   0.77158   0.90691    |
 |   195    0.42857   0.85714   0.71429   |    1.15738   0.96448   0.90691    |
 |   196    0.42857   0.85714   0.85714   |    1.15738   1.15738   0.90691    |
 |   197    0.57143   0.00000   0.00000   |    0.00000   0.00000   1.20921    |
 |   198    0.57143   0.00000   0.14286   |    0.00000   0.19290   1.20921    |
 |   199    0.57143   0.00000   0.28571   |    0.00000   0.38579   1.20921    |
 |   200    0.57143   0.00000   0.42857   |    0.00000   0.57869   1.20921    |
 |   201    0.57143   0.00000   0.57143   |    0.00000   0.77158   1.20921    |
 |   202    0.57143   0.00000   0.71429   |    0.00000   0.96448   1.20921    |
 |   203    0.57143   0.00000   0.85714   |    0.00000   1.15738   1.20921    |
 |   204    0.57143   0.14286   0.00000   |    0.19290   0.00000   1.20921    |
 |   205    0.57143   0.14286   0.14286   |    0.19290   0.19290   1.20921    |
 |   206    0.57143   0.14286   0.28571   |    0.19290   0.38579   1.20921    |
 |   207    0.57143   0.14286   0.42857   |    0.19290   0.57869   1.20921    |
 |   208    0.57143   0.14286   0.57143   |    0.19290   0.77158   1.20921    |
 |   209    0.57143   0.14286   0.71429   |    0.19290   0.96448   1.20921    |
 |   210    0.57143   0.14286   0.85714   |    0.19290   1.15738   1.20921    |
 |   211    0.57143   0.28571   0.00000   |    0.38579   0.00000   1.20921    |
 |   212    0.57143   0.28571   0.14286   |    0.38579   0.19290   1.20921    |
 |   213    0.57143   0.28571   0.28571   |    0.38579   0.38579   1.20921    |
 |   214    0.57143   0.28571   0.42857   |    0.38579   0.57869   1.20921    |
 |   215    0.57143   0.28571   0.57143   |    0.38579   0.77158   1.20921    |
 |   216    0.57143   0.28571   0.71429   |    0.38579   0.96448   1.20921    |
 |   217    0.57143   0.28571   0.85714   |    0.38579   1.15738   1.20921    |
 |   218    0.57143   0.42857   0.00000   |    0.57869   0.00000   1.20921    |
 |   219    0.57143   0.42857   0.14286   |    0.57869   0.19290   1.20921    |
 |   220    0.57143   0.42857   0.28571   |    0.57869   0.38579   1.20921    |
 |   221    0.57143   0.42857   0.42857   |    0.57869   0.57869   1.20921    |
 |   222    0.57143   0.42857   0.57143   |    0.57869   0.77158   1.20921    |
 |   223    0.57143   0.42857   0.71429   |    0.57869   0.96448   1.20921    |
 |   224    0.57143   0.42857   0.85714   |    0.57869   1.15738   1.20921    |
 |   225    0.57143   0.57143   0.00000   |    0.77158   0.00000   1.20921    |
 |   226    0.57143   0.57143   0.14286   |    0.77158   0.19290   1.20921    |
 |   227    0.57143   0.57143   0.28571   |    0.77158   0.38579   1.20921    |
 |   228    0.57143   0.57143   0.42857   |    0.77158   0.57869   1.20921    |
 |   229    0.57143   0.57143   0.57143   |    0.77158   0.77158   1.20921    |
 |   230    0.57143   0.57143   0.71429   |    0.77158   0.96448   1.20921    |
 |   231    0.57143   0.57143   0.85714   |    0.77158   1.15738   1.20921    |
 |   232    0.57143   0.71429   0.00000   |    0.96448   0.00000   1.20921    |
 |   233    0.57143   0.71429   0.14286   |    0.96448   0.19290   1.20921    |
 |   234    0.57143   0.71429   0.28571   |    0.96448   0.38579   1.20921    |
 |   235    0.57143   0.71429   0.42857   |    0.96448   0.57869   1.20921    |
 |   236    0.57143   0.71429   0.57143   |    0.96448   0.77158   1.20921    |
 |   237    0.57143   0.71429   0.71429   |    0.96448   0.96448   1.20921    |
 |   238    0.57143   0.71429   0.85714   |    0.96448   1.15738   1.20921    |
 |   239    0.57143   0.85714   0.00000   |    1.15738   0.00000   1.20921    |
 |   240    0.57143   0.85714   0.14286   |    1.15738   0.19290   1.20921    |
 |   241    0.57143   0.85714   0.28571   |    1.15738   0.38579   1.20921    |
 |   242    0.57143   0.85714   0.42857   |    1.15738   0.57869   1.20921    |
 |   243    0.57143   0.85714   0.57143   |    1.15738   0.77158   1.20921    |
 |   244    0.57143   0.85714   0.71429   |    1.15738   0.96448   1.20921    |
 |   245    0.57143   0.85714   0.85714   |    1.15738   1.15738   1.20921    |
 |   246    0.71429   0.00000   0.00000   |    0.00000   0.00000   1.51151    |
 |   247    0.71429   0.00000   0.14286   |    0.00000   0.19290   1.51151    |
 |   248    0.71429   0.00000   0.28571   |    0.00000   0.38579   1.51151    |
 |   249    0.71429   0.00000   0.42857   |    0.00000   0.57869   1.51151    |
 |   250    0.71429   0.00000   0.57143   |    0.00000   0.77158   1.51151    |
 |   251    0.71429   0.00000   0.71429   |    0.00000   0.96448   1.51151    |
 |   252    0.71429   0.00000   0.85714   |    0.00000   1.15738   1.51151    |
 |   253    0.71429   0.14286   0.00000   |    0.19290   0.00000   1.51151    |
 |   254    0.71429   0.14286   0.14286   |    0.19290   0.19290   1.51151    |
 |   255    0.71429   0.14286   0.28571   |    0.19290   0.38579   1.51151    |
 |   256    0.71429   0.14286   0.42857   |    0.19290   0.57869   1.51151    |
 |   257    0.71429   0.14286   0.57143   |    0.19290   0.77158   1.51151    |
 |   258    0.71429   0.14286   0.71429   |    0.19290   0.96448   1.51151    |
 |   259    0.71429   0.14286   0.85714   |    0.19290   1.15738   1.51151    |
 |   260    0.71429   0.28571   0.00000   |    0.38579   0.00000   1.51151    |
 |   261    0.71429   0.28571   0.14286   |    0.38579   0.19290   1.51151    |
 |   262    0.71429   0.28571   0.28571   |    0.38579   0.38579   1.51151    |
 |   263    0.71429   0.28571   0.42857   |    0.38579   0.57869   1.51151    |
 |   264    0.71429   0.28571   0.57143   |    0.38579   0.77158   1.51151    |
 |   265    0.71429   0.28571   0.71429   |    0.38579   0.96448   1.51151    |
 |   266    0.71429   0.28571   0.85714   |    0.38579   1.15738   1.51151    |
 |   267    0.71429   0.42857   0.00000   |    0.57869   0.00000   1.51151    |
 |   268    0.71429   0.42857   0.14286   |    0.57869   0.19290   1.51151    |
 |   269    0.71429   0.42857   0.28571   |    0.57869   0.38579   1.51151    |
 |   270    0.71429   0.42857   0.42857   |    0.57869   0.57869   1.51151    |
 |   271    0.71429   0.42857   0.57143   |    0.57869   0.77158   1.51151    |
 |   272    0.71429   0.42857   0.71429   |    0.57869   0.96448   1.51151    |
 |   273    0.71429   0.42857   0.85714   |    0.57869   1.15738   1.51151    |
 |   274    0.71429   0.57143   0.00000   |    0.77158   0.00000   1.51151    |
 |   275    0.71429   0.57143   0.14286   |    0.77158   0.19290   1.51151    |
 |   276    0.71429   0.57143   0.28571   |    0.77158   0.38579   1.51151    |
 |   277    0.71429   0.57143   0.42857   |    0.77158   0.57869   1.51151    |
 |   278    0.71429   0.57143   0.57143   |    0.77158   0.77158   1.51151    |
 |   279    0.71429   0.57143   0.71429   |    0.77158   0.96448   1.51151    |
 |   280    0.71429   0.57143   0.85714   |    0.77158   1.15738   1.51151    |
 |   281    0.71429   0.71429   0.00000   |    0.96448   0.00000   1.51151    |
 |   282    0.71429   0.71429   0.14286   |    0.96448   0.19290   1.51151    |
 |   283    0.71429   0.71429   0.28571   |    0.96448   0.38579   1.51151    |
 |   284    0.71429   0.71429   0.42857   |    0.96448   0.57869   1.51151    |
 |   285    0.71429   0.71429   0.57143   |    0.96448   0.77158   1.51151    |
 |   286    0.71429   0.71429   0.71429   |    0.96448   0.96448   1.51151    |
 |   287    0.71429   0.71429   0.85714   |    0.96448   1.15738   1.51151    |
 |   288    0.71429   0.85714   0.00000   |    1.15738   0.00000   1.51151    |
 |   289    0.71429   0.85714   0.14286   |    1.15738   0.19290   1.51151    |
 |   290    0.71429   0.85714   0.28571   |    1.15738   0.38579   1.51151    |
 |   291    0.71429   0.85714   0.42857   |    1.15738   0.57869   1.51151    |
 |   292    0.71429   0.85714   0.57143   |    1.15738   0.77158   1.51151    |
 |   293    0.71429   0.85714   0.71429   |    1.15738   0.96448   1.51151    |
 |   294    0.71429   0.85714   0.85714   |    1.15738   1.15738   1.51151    |
 |   295    0.85714   0.00000   0.00000   |    0.00000   0.00000   1.81382    |
 |   296    0.85714   0.00000   0.14286   |    0.00000   0.19290   1.81382    |
 |   297    0.85714   0.00000   0.28571   |    0.00000   0.38579   1.81382    |
 |   298    0.85714   0.00000   0.42857   |    0.00000   0.57869   1.81382    |
 |   299    0.85714   0.00000   0.57143   |    0.00000   0.77158   1.81382    |
 |   300    0.85714   0.00000   0.71429   |    0.00000   0.96448   1.81382    |
 |   301    0.85714   0.00000   0.85714   |    0.00000   1.15738   1.81382    |
 |   302    0.85714   0.14286   0.00000   |    0.19290   0.00000   1.81382    |
 |   303    0.85714   0.14286   0.14286   |    0.19290   0.19290   1.81382    |
 |   304    0.85714   0.14286   0.28571   |    0.19290   0.38579   1.81382    |
 |   305    0.85714   0.14286   0.42857   |    0.19290   0.57869   1.81382    |
 |   306    0.85714   0.14286   0.57143   |    0.19290   0.77158   1.81382    |
 |   307    0.85714   0.14286   0.71429   |    0.19290   0.96448   1.81382    |
 |   308    0.85714   0.14286   0.85714   |    0.19290   1.15738   1.81382    |
 |   309    0.85714   0.28571   0.00000   |    0.38579   0.00000   1.81382    |
 |   310    0.85714   0.28571   0.14286   |    0.38579   0.19290   1.81382    |
 |   311    0.85714   0.28571   0.28571   |    0.38579   0.38579   1.81382    |
 |   312    0.85714   0.28571   0.42857   |    0.38579   0.57869   1.81382    |
 |   313    0.85714   0.28571   0.57143   |    0.38579   0.77158   1.81382    |
 |   314    0.85714   0.28571   0.71429   |    0.38579   0.96448   1.81382    |
 |   315    0.85714   0.28571   0.85714   |    0.38579   1.15738   1.81382    |
 |   316    0.85714   0.42857   0.00000   |    0.57869   0.00000   1.81382    |
 |   317    0.85714   0.42857   0.14286   |    0.57869   0.19290   1.81382    |
 |   318    0.85714   0.42857   0.28571   |    0.57869   0.38579   1.81382    |
 |   319    0.85714   0.42857   0.42857   |    0.57869   0.57869   1.81382    |
 |   320    0.85714   0.42857   0.57143   |    0.57869   0.77158   1.81382    |
 |   321    0.85714   0.42857   0.71429   |    0.57869   0.96448   1.81382    |
 |   322    0.85714   0.42857   0.85714   |    0.57869   1.15738   1.81382    |
 |   323    0.85714   0.57143   0.00000   |    0.77158   0.00000   1.81382    |
 |   324    0.85714   0.57143   0.14286   |    0.77158   0.19290   1.81382    |
 |   325    0.85714   0.57143   0.28571   |    0.77158   0.38579   1.81382    |
 |   326    0.85714   0.57143   0.42857   |    0.77158   0.57869   1.81382    |
 |   327    0.85714   0.57143   0.57143   |    0.77158   0.77158   1.81382    |
 |   328    0.85714   0.57143   0.71429   |    0.77158   0.96448   1.81382    |
 |   329    0.85714   0.57143   0.85714   |    0.77158   1.15738   1.81382    |
 |   330    0.85714   0.71429   0.00000   |    0.96448   0.00000   1.81382    |
 |   331    0.85714   0.71429   0.14286   |    0.96448   0.19290   1.81382    |
 |   332    0.85714   0.71429   0.28571   |    0.96448   0.38579   1.81382    |
 |   333    0.85714   0.71429   0.42857   |    0.96448   0.57869   1.81382    |
 |   334    0.85714   0.71429   0.57143   |    0.96448   0.77158   1.81382    |
 |   335    0.85714   0.71429   0.71429   |    0.96448   0.96448   1.81382    |
 |   336    0.85714   0.71429   0.85714   |    0.96448   1.15738   1.81382    |
 |   337    0.85714   0.85714   0.00000   |    1.15738   0.00000   1.81382    |
 |   338    0.85714   0.85714   0.14286   |    1.15738   0.19290   1.81382    |
 |   339    0.85714   0.85714   0.28571   |    1.15738   0.38579   1.81382    |
 |   340    0.85714   0.85714   0.42857   |    1.15738   0.57869   1.81382    |
 |   341    0.85714   0.85714   0.57143   |    1.15738   0.77158   1.81382    |
 |   342    0.85714   0.85714   0.71429   |    1.15738   0.96448   1.81382    |
 |   343    0.85714   0.85714   0.85714   |    1.15738   1.15738   1.81382    |
 *----------------------------------------------------------------------------*
  
  
 *---------------------------------- MAIN ------------------------------------*
 |  Number of Wannier Functions               :                22             |
 |  Number of Objective Wannier Functions     :                22             |
 |  Number of input Bloch states              :                80             |
 |  Output verbosity (1=low, 5=high)          :                 2             |
 |  Timing Level (1=low, 5=high)              :                 1             |
 |  Optimisation (0=memory, 3=speed)          :                 3             |
 |  Length Unit                               :               Ang             |
 |  Post-processing setup (write *.nnkp)      :                 F             |
 |  Using Gamma-only branch of algorithms     :                 F             |
 *----------------------------------------------------------------------------*
 *------------------------------- WANNIERISE ---------------------------------*
 |  Total number of iterations                :              1000             |
 |  Number of CG steps before reset           :                 5             |
 |  Trial step length for line search         :             2.000             |
 |  Convergence tolerence                     :         0.100E-11             |
 |  Convergence window                        :                 5             |
 |  Iterations between writing output         :                 1             |
 |  Iterations between backing up to disk     :               100             |
 |  Write r^2_nm to file                      :                 F             |
 |  Write xyz WF centres to file              :                 F             |
 |  Write on-site energies <0n|H|0n> to file  :                 F             |
 |  Use guiding centre to control phases      :                 F             |
 |  Use phases for initial projections        :                 F             |
 *----------------------------------------------------------------------------*
 *------------------------------- DISENTANGLE --------------------------------*
 |  Using band disentanglement                :                 T             |
 |  Total number of iterations                :              1000             |
 |  Mixing ratio                              :             0.500             |
 |  Convergence tolerence                     :         1.000E-12             |
 |  Convergence window                        :                 3             |
 *----------------------------------------------------------------------------*
 *-------------------------------- PLOTTING ----------------------------------*
 |  Plotting interpolated bandstructure       :                 T             |
 |   Number of K-path sections                :                 7             |
 |   Divisions along first K-path section     :               100             |
 |   Output format                            :           gnuplot             |
 |   Output mode                              :               s-k             |
 *----------------------------------------------------------------------------*
 |   K-space path sections:                                                   |
 |    From: G       0.000  0.000  0.000     To: X       0.500  0.000  0.000   |
 |    From: X       0.500  0.000  0.000     To: M       0.500 -0.500  0.000   |
 |    From: M       0.500 -0.500  0.000     To: G       0.000  0.000  0.000   |
 |    From: G       0.000  0.000  0.000     To: Z       0.000  0.000  0.500   |
 |    From: Z       0.000  0.000  0.500     To: R       0.500  0.000  0.500   |
 |    From: R       0.500  0.000  0.500     To: A       0.500 -0.500  0.500   |
 |    From: A       0.500 -0.500  0.500     To: Z       0.000  0.000  0.500   |
 *----------------------------------------------------------------------------*
 |  Plotting Hamiltonian in WF basis          :                 T             |
 *----------------------------------------------------------------------------*
 Time to read parameters        0.063 (sec)

 *---------------------------------- K-MESH ----------------------------------*
 +----------------------------------------------------------------------------+
 |                    Distance to Nearest-Neighbour Shells                    |
 |                    ------------------------------------                    |
 |          Shell             Distance (Ang^-1)          Multiplicity         |
 |          -----             -----------------          ------------         |
 |             1                   0.192896                      4            |
 |             2                   0.272796                      4            |
 |             3                   0.302303                      2            |
 |             4                   0.358603                      8            |
 |             5                   0.385792                      4            |
 |             6                   0.407191                      8            |
 |             7                   0.431329                      8            |
 |             8                   0.490125                      8            |
 |             9                   0.526718                     16            |
 |            10                   0.545592                      4            |
 |            11                   0.578688                      4            |
 |            12                   0.604605                      2            |
 |            13                   0.609991                      8            |
 |            14                   0.623745                      8            |
 |            15                   0.634631                      8            |
 |            16                   0.652891                      8            |
 |            17                   0.663299                      8            |
 |            18                   0.680791                     16            |
 |            19                   0.695497                      8            |
 |            20                   0.717205                      8            |
 |            21                   0.742692                     16            |
 |            22                   0.758355                     16            |
 |            23                   0.771584                      4            |
 |            24                   0.795331                      8            |
 |            25                   0.814382                      8            |
 |            26                   0.818389                      4            |
 |            27                   0.828691                      8            |
 |            28                   0.836916                      8            |
 |            29                   0.850846                     16            |
 |            30                   0.858858                     16            |
 |            31                   0.862657                      8            |
 |            32                   0.872437                      8            |
 |            33                   0.906908                      2            |
 |            34                   0.914092                     16            |
 |            35                   0.921555                     16            |
 |            36                   0.927195                      8            |
 +----------------------------------------------------------------------------+
 | The b-vectors are chosen automatically                                     |
 | Shell:  1 w_b   13.4376475      (Ang^2)                                    |
 | SVD found small singular value, Rejecting this shell and trying the next   |
 | Shell:  1 w_b   13.4376475      (Ang^2)                                    |
 | Shell:  2 w_b    5.4712448      (Ang^2)                                    |
 | The following shells are used:   1,  3                                     |
 +----------------------------------------------------------------------------+
 |                        Shell   # Nearest-Neighbours                        |
 |                        -----   --------------------                        |
 |                          1               4                                 |
 |                          3               2                                 |
 +----------------------------------------------------------------------------+
 | Completeness relation is fully satisfied [Eq. (B1), PRB 56, 12847 (1997)]  |
 +----------------------------------------------------------------------------+
 |                  b_k Vectors (Ang^-1) and Weights (Ang^2)                  |
 |                  ----------------------------------------                  |
 |            No.         b_k(x)      b_k(y)      b_k(z)        w_b           |
 |            ---        --------------------------------     --------        |
 |             1         0.000000    0.192896    0.000000    13.437647        |
 |             2         0.192896    0.000000    0.000000    13.437647        |
 |             3         0.000000   -0.192896    0.000000    13.437647        |
 |             4        -0.192896    0.000000    0.000000    13.437647        |
 |             5         0.000000    0.000000    0.302303     5.471245        |
 |             6         0.000000    0.000000   -0.302303     5.471245        |
 +----------------------------------------------------------------------------+
 |                           b_k Directions (Ang^-1)                          |
 |                           -----------------------                          |
 |            No.           x           y           z                         |
 |            ---        --------------------------------                     |
 |             1         0.000000    0.192896    0.000000                     |
 |             2         0.192896    0.000000    0.000000                     |
 |             3         0.000000    0.000000    0.302303                     |
 +----------------------------------------------------------------------------+
  
 Time to get kmesh              0.210 (sec)
 *============================================================================*
 |                              MEMORY ESTIMATE                               |
 |         Maximum RAM allocated during each phase of the calculation         |
 *============================================================================*
 |                        Disentanglement          289.93 Mb                  |
 |                            Wannierise:           51.85 Mb                  |
 |                                                                            |
 |   N.B. by setting optimisation=0 memory usage will be reduced to:          |
 |                        Disentanglement          289.93 Mb                  |
 |                            Wannierise:           36.65 Mb                  |
 |   However, this will result in more i/o and slow down the calculation      |
 |                          plot_wannier:           51.85 Mb                  |
 *----------------------------------------------------------------------------*
  
 Starting a new Wannier90 calculation ...


 Reading overlaps from tio.mmn    :  Created on 14Nov2022 at 20:42: 9

 Reading projections from tio.amn :  Created on 14Nov2022 at 20:24:31

 Time to read overlaps         11.573 (sec)

 *------------------------------- DISENTANGLE --------------------------------*
 +----------------------------------------------------------------------------+
 |                              Energy  Windows                               |
 |                              ---------------                               |
 |                   Outer:    0.00000  to   20.00000  (eV)                   |
 |                   No frozen states were specified                          |
 +----------------------------------------------------------------------------+
 |                        K-points with Frozen States                         |
 |                        ---------------------------                         |
 +----------------------------------------------------------------------------+
   Number of target bands to extract:   22
 +----------------------------------------------------------------------------+
 |                                  Windows                                   |
 |                                  -------                                   |
 |               K-point      Ndimwin     Ndimfroz    Nfirstwin               |
 |               ----------------------------------------------               |
 |                   1           25            0          13                  |
 |                   2           24            0          13                  |
 |                   3           24            0          13                  |
 |                   4           24            0          13                  |
 |                   5           24            0          13                  |
 |                   6           24            0          13                  |
 |                   7           24            0          13                  |
 |                   8           24            0          13                  |
 |                   9           25            0          13                  |
 |                  10           24            0          13                  |
 |                  11           24            0          13                  |
 |                  12           24            0          13                  |
 |                  13           24            0          13                  |
 |                  14           25            0          13                  |
 |                  15           24            0          13                  |
 |                  16           24            0          13                  |
 |                  17           24            0          13                  |
 |                  18           24            0          13                  |
 |                  19           24            0          13                  |
 |                  20           24            0          13                  |
 |                  21           24            0          13                  |
 |                  22           24            0          13                  |
 |                  23           24            0          13                  |
 |                  24           24            0          13                  |
 |                  25           24            0          13                  |
 |                  26           24            0          13                  |
 |                  27           24            0          13                  |
 |                  28           24            0          13                  |
 |                  29           24            0          13                  |
 |                  30           24            0          13                  |
 |                  31           24            0          13                  |
 |                  32           24            0          13                  |
 |                  33           24            0          13                  |
 |                  34           24            0          13                  |
 |                  35           24            0          13                  |
 |                  36           24            0          13                  |
 |                  37           24            0          13                  |
 |                  38           24            0          13                  |
 |                  39           24            0          13                  |
 |                  40           24            0          13                  |
 |                  41           24            0          13                  |
 |                  42           24            0          13                  |
 |                  43           24            0          13                  |
 |                  44           25            0          13                  |
 |                  45           24            0          13                  |
 |                  46           24            0          13                  |
 |                  47           24            0          13                  |
 |                  48           24            0          13                  |
 |                  49           25            0          13                  |
 |                  50           23            0          13                  |
 |                  51           23            0          13                  |
 |                  52           23            0          13                  |
 |                  53           24            0          13                  |
 |                  54           24            0          13                  |
 |                  55           23            0          13                  |
 |                  56           23            0          13                  |
 |                  57           23            0          13                  |
 |                  58           23            0          13                  |
 |                  59           23            0          13                  |
 |                  60           24            0          13                  |
 |                  61           24            0          13                  |
 |                  62           23            0          13                  |
 |                  63           23            0          13                  |
 |                  64           23            0          13                  |
 |                  65           23            0          13                  |
 |                  66           23            0          13                  |
 |                  67           24            0          13                  |
 |                  68           24            0          13                  |
 |                  69           23            0          13                  |
 |                  70           23            0          13                  |
 |                  71           24            0          13                  |
 |                  72           24            0          13                  |
 |                  73           24            0          13                  |
 |                  74           24            0          13                  |
 |                  75           24            0          13                  |
 |                  76           24            0          13                  |
 |                  77           24            0          13                  |
 |                  78           24            0          13                  |
 |                  79           24            0          13                  |
 |                  80           24            0          13                  |
 |                  81           24            0          13                  |
 |                  82           24            0          13                  |
 |                  83           24            0          13                  |
 |                  84           24            0          13                  |
 |                  85           23            0          13                  |
 |                  86           23            0          13                  |
 |                  87           23            0          13                  |
 |                  88           24            0          13                  |
 |                  89           24            0          13                  |
 |                  90           23            0          13                  |
 |                  91           23            0          13                  |
 |                  92           23            0          13                  |
 |                  93           23            0          13                  |
 |                  94           23            0          13                  |
 |                  95           24            0          13                  |
 |                  96           24            0          13                  |
 |                  97           23            0          13                  |
 |                  98           23            0          13                  |
 |                  99           23            0          13                  |
 |                 100           23            0          13                  |
 |                 101           23            0          13                  |
 |                 102           23            0          13                  |
 |                 103           23            0          13                  |
 |                 104           23            0          13                  |
 |                 105           23            0          13                  |
 |                 106           23            0          13                  |
 |                 107           23            0          13                  |
 |                 108           23            0          13                  |
 |                 109           23            0          13                  |
 |                 110           23            0          13                  |
 |                 111           23            0          13                  |
 |                 112           23            0          13                  |
 |                 113           23            0          13                  |
 |                 114           23            0          13                  |
 |                 115           23            0          13                  |
 |                 116           23            0          13                  |
 |                 117           23            0          13                  |
 |                 118           23            0          13                  |
 |                 119           23            0          13                  |
 |                 120           23            0          13                  |
 |                 121           23            0          13                  |
 |                 122           23            0          13                  |
 |                 123           23            0          13                  |
 |                 124           23            0          13                  |
 |                 125           23            0          13                  |
 |                 126           23            0          13                  |
 |                 127           23            0          13                  |
 |                 128           23            0          13                  |
 |                 129           23            0          13                  |
 |                 130           23            0          13                  |
 |                 131           23            0          13                  |
 |                 132           23            0          13                  |
 |                 133           23            0          13                  |
 |                 134           23            0          13                  |
 |                 135           23            0          13                  |
 |                 136           23            0          13                  |
 |                 137           23            0          13                  |
 |                 138           23            0          13                  |
 |                 139           23            0          13                  |
 |                 140           23            0          13                  |
 |                 141           23            0          13                  |
 |                 142           23            0          13                  |
 |                 143           23            0          13                  |
 |                 144           23            0          13                  |
 |                 145           23            0          13                  |
 |                 146           23            0          13                  |
 |                 147           23            0          13                  |
 |                 148           23            0          13                  |
 |                 149           23            0          13                  |
 |                 150           23            0          13                  |
 |                 151           22            0          13                  |
 |                 152           22            0          13                  |
 |                 153           23            0          13                  |
 |                 154           23            0          13                  |
 |                 155           23            0          13                  |
 |                 156           23            0          13                  |
 |                 157           23            0          13                  |
 |                 158           22            0          13                  |
 |                 159           22            0          13                  |
 |                 160           23            0          13                  |
 |                 161           23            0          13                  |
 |                 162           23            0          13                  |
 |                 163           23            0          13                  |
 |                 164           23            0          13                  |
 |                 165           22            0          13                  |
 |                 166           22            0          13                  |
 |                 167           23            0          13                  |
 |                 168           23            0          13                  |
 |                 169           22            0          13                  |
 |                 170           22            0          13                  |
 |                 171           22            0          13                  |
 |                 172           23            0          13                  |
 |                 173           23            0          13                  |
 |                 174           22            0          13                  |
 |                 175           22            0          13                  |
 |                 176           22            0          13                  |
 |                 177           22            0          13                  |
 |                 178           22            0          13                  |
 |                 179           23            0          13                  |
 |                 180           23            0          13                  |
 |                 181           22            0          13                  |
 |                 182           22            0          13                  |
 |                 183           23            0          13                  |
 |                 184           23            0          13                  |
 |                 185           23            0          13                  |
 |                 186           22            0          13                  |
 |                 187           22            0          13                  |
 |                 188           23            0          13                  |
 |                 189           23            0          13                  |
 |                 190           23            0          13                  |
 |                 191           23            0          13                  |
 |                 192           23            0          13                  |
 |                 193           22            0          13                  |
 |                 194           22            0          13                  |
 |                 195           23            0          13                  |
 |                 196           23            0          13                  |
 |                 197           23            0          13                  |
 |                 198           23            0          13                  |
 |                 199           23            0          13                  |
 |                 200           22            0          13                  |
 |                 201           22            0          13                  |
 |                 202           23            0          13                  |
 |                 203           23            0          13                  |
 |                 204           23            0          13                  |
 |                 205           23            0          13                  |
 |                 206           23            0          13                  |
 |                 207           22            0          13                  |
 |                 208           22            0          13                  |
 |                 209           23            0          13                  |
 |                 210           23            0          13                  |
 |                 211           23            0          13                  |
 |                 212           23            0          13                  |
 |                 213           23            0          13                  |
 |                 214           22            0          13                  |
 |                 215           22            0          13                  |
 |                 216           23            0          13                  |
 |                 217           23            0          13                  |
 |                 218           22            0          13                  |
 |                 219           22            0          13                  |
 |                 220           22            0          13                  |
 |                 221           23            0          13                  |
 |                 222           23            0          13                  |
 |                 223           22            0          13                  |
 |                 224           22            0          13                  |
 |                 225           22            0          13                  |
 |                 226           22            0          13                  |
 |                 227           22            0          13                  |
 |                 228           23            0          13                  |
 |                 229           23            0          13                  |
 |                 230           22            0          13                  |
 |                 231           22            0          13                  |
 |                 232           23            0          13                  |
 |                 233           23            0          13                  |
 |                 234           23            0          13                  |
 |                 235           22            0          13                  |
 |                 236           22            0          13                  |
 |                 237           23            0          13                  |
 |                 238           23            0          13                  |
 |                 239           23            0          13                  |
 |                 240           23            0          13                  |
 |                 241           23            0          13                  |
 |                 242           22            0          13                  |
 |                 243           22            0          13                  |
 |                 244           23            0          13                  |
 |                 245           23            0          13                  |
 |                 246           23            0          13                  |
 |                 247           23            0          13                  |
 |                 248           23            0          13                  |
 |                 249           23            0          13                  |
 |                 250           23            0          13                  |
 |                 251           23            0          13                  |
 |                 252           23            0          13                  |
 |                 253           23            0          13                  |
 |                 254           23            0          13                  |
 |                 255           23            0          13                  |
 |                 256           23            0          13                  |
 |                 257           23            0          13                  |
 |                 258           23            0          13                  |
 |                 259           23            0          13                  |
 |                 260           23            0          13                  |
 |                 261           23            0          13                  |
 |                 262           23            0          13                  |
 |                 263           23            0          13                  |
 |                 264           23            0          13                  |
 |                 265           23            0          13                  |
 |                 266           23            0          13                  |
 |                 267           23            0          13                  |
 |                 268           23            0          13                  |
 |                 269           23            0          13                  |
 |                 270           23            0          13                  |
 |                 271           23            0          13                  |
 |                 272           23            0          13                  |
 |                 273           23            0          13                  |
 |                 274           23            0          13                  |
 |                 275           23            0          13                  |
 |                 276           23            0          13                  |
 |                 277           23            0          13                  |
 |                 278           23            0          13                  |
 |                 279           23            0          13                  |
 |                 280           23            0          13                  |
 |                 281           23            0          13                  |
 |                 282           23            0          13                  |
 |                 283           23            0          13                  |
 |                 284           23            0          13                  |
 |                 285           23            0          13                  |
 |                 286           23            0          13                  |
 |                 287           23            0          13                  |
 |                 288           23            0          13                  |
 |                 289           23            0          13                  |
 |                 290           23            0          13                  |
 |                 291           23            0          13                  |
 |                 292           23            0          13                  |
 |                 293           23            0          13                  |
 |                 294           23            0          13                  |
 |                 295           23            0          13                  |
 |                 296           23            0          13                  |
 |                 297           23            0          13                  |
 |                 298           24            0          13                  |
 |                 299           24            0          13                  |
 |                 300           23            0          13                  |
 |                 301           23            0          13                  |
 |                 302           23            0          13                  |
 |                 303           23            0          13                  |
 |                 304           23            0          13                  |
 |                 305           24            0          13                  |
 |                 306           24            0          13                  |
 |                 307           23            0          13                  |
 |                 308           23            0          13                  |
 |                 309           23            0          13                  |
 |                 310           23            0          13                  |
 |                 311           23            0          13                  |
 |                 312           24            0          13                  |
 |                 313           24            0          13                  |
 |                 314           23            0          13                  |
 |                 315           23            0          13                  |
 |                 316           24            0          13                  |
 |                 317           24            0          13                  |
 |                 318           24            0          13                  |
 |                 319           24            0          13                  |
 |                 320           24            0          13                  |
 |                 321           24            0          13                  |
 |                 322           24            0          13                  |
 |                 323           24            0          13                  |
 |                 324           24            0          13                  |
 |                 325           24            0          13                  |
 |                 326           24            0          13                  |
 |                 327           24            0          13                  |
 |                 328           24            0          13                  |
 |                 329           24            0          13                  |
 |                 330           23            0          13                  |
 |                 331           23            0          13                  |
 |                 332           23            0          13                  |
 |                 333           24            0          13                  |
 |                 334           24            0          13                  |
 |                 335           23            0          13                  |
 |                 336           23            0          13                  |
 |                 337           23            0          13                  |
 |                 338           23            0          13                  |
 |                 339           23            0          13                  |
 |                 340           24            0          13                  |
 |                 341           24            0          13                  |
 |                 342           23            0          13                  |
 |                 343           23            0          13                  |
 +----------------------------------------------------------------------------+

                   Unitarised projection of Wannier functions                  
                   ------------------------------------------                  
   A_mn = <psi_m|g_n> --> S = A.A^+ --> U = S^-1/2.A
   In dis_project... done
   No inner window (linner = F)

                   Extraction of optimally-connected subspace                  
                   ------------------------------------------                  
 +---------------------------------------------------------------------+<-- DIS
 |  Iter     Omega_I(i-1)      Omega_I(i)      Delta (frac.)    Time   |<-- DIS
 +---------------------------------------------------------------------+<-- DIS
       1      43.62443590      38.86051950       1.226E-01      0.00    <-- DIS
       2      40.89287602      36.95765725       1.065E-01      0.12    <-- DIS
       3      38.78716830      35.93780998       7.929E-02      0.23    <-- DIS
       4      37.25446687      35.11106501       6.105E-02      0.35    <-- DIS
       5      36.09318448      34.41552824       4.875E-02      0.47    <-- DIS
       6      35.17636012      33.80414667       4.059E-02      0.59    <-- DIS
       7      34.42037415      33.25606329       3.501E-02      0.71    <-- DIS
       8      33.77579247      32.76805834       3.075E-02      0.82    <-- DIS
       9      33.21657880      32.33589344       2.724E-02      0.94    <-- DIS
      10      32.72688897      31.94964124       2.433E-02      1.05    <-- DIS
      11      32.29347133      31.59738208       2.203E-02      1.16    <-- DIS
      12      31.90383317      31.26864980       2.031E-02      1.27    <-- DIS
      13      31.54685210      30.95621058       1.908E-02      1.39    <-- DIS
      14      31.21379917      30.65647725       1.818E-02      1.50    <-- DIS
      15      30.89889924      30.36866138       1.746E-02      1.62    <-- DIS
      16      30.59906231      30.09312719       1.681E-02      1.73    <-- DIS
      17      30.31292846      29.83000605       1.619E-02      1.84    <-- DIS
      18      30.03978355      29.57851734       1.559E-02      1.95    <-- DIS
      19      29.77875103      29.33683958       1.506E-02      2.06    <-- DIS
      20      29.52837005      29.10230403       1.464E-02      2.18    <-- DIS
      21      29.28649709      28.87165952       1.437E-02      2.29    <-- DIS
      22      29.05037752      28.64119916       1.429E-02      2.39    <-- DIS
      23      28.81671377      28.40660849       1.444E-02      2.51    <-- DIS
      24      28.58158526      28.16252212       1.488E-02      2.63    <-- DIS
      25      28.34018154      27.90221640       1.570E-02      2.74    <-- DIS
      26      28.08664220      27.61869164       1.694E-02      2.86    <-- DIS
[...]
  WF centre and spread   15  (  1.409282,  1.404645,  0.004076 )     0.70622877
  WF centre and spread   16  (  2.326637,  2.326638,  1.484604 )     0.69885277
  WF centre and spread   17  ( -1.420000, -1.417889,  0.005741 )     0.70414528
  WF centre and spread   18  ( -1.415963, -1.407548, -0.006546 )     0.70139751
  WF centre and spread   19  ( -1.411730, -1.422238,  0.000853 )     0.68831423
  WF centre and spread   20  ( -0.921742,  0.911583,  1.483137 )     0.70007557
  WF centre and spread   21  ( -0.906527,  0.907274,  1.488439 )     0.70530008
  WF centre and spread   22  ( -0.903991,  0.913358,  1.482274 )     0.68804154
  Sum of centres and spreads ( 11.633148,  6.979901, 13.361495 )    15.49422571

    993    -0.312E-06     0.0004920724       15.4942302015     190.42  <-- CONV
        O_D=      0.0004043 O_OD=      0.2264628 O_TOT=     15.4942302 <-- SPRD
 Delta: O_D= -0.1244135E-07 O_OD= -0.2997094E-06 O_TOT= -0.3121508E-06 <-- DLTA
 ------------------------------------------------------------------------------
 Cycle:    994
  WF centre and spread    1  (  2.326638,  2.326637, -1.484603 )     0.69327652
  WF centre and spread    2  (  2.326641,  2.326639,  1.484602 )     0.71734248
  WF centre and spread    3  (  2.326640,  2.326637,  1.484600 )     0.72778072
  WF centre and spread    4  (  1.419070,  1.423393,  0.000376 )     0.68148905
  WF centre and spread    5  (  2.326634, -2.326638,  1.484600 )     0.72265163
  WF centre and spread    6  ( -0.000003, -0.000001, -0.000004 )     0.71655376
  WF centre and spread    7  (  0.000006,  0.000001, -0.000001 )     0.71800344
  WF centre and spread    8  (  0.000001,  0.000003,  0.000000 )     0.71801874
  WF centre and spread    9  ( -0.000003, -0.000002,  0.000001 )     0.72160205
  WF centre and spread   10  (  0.000001, -0.000000, -0.000003 )     0.68455239
  WF centre and spread   11  (  0.912719, -0.919212,  1.477017 )     0.70419827
  WF centre and spread   12  (  0.906895, -0.903896,  1.483412 )     0.68545550
  WF centre and spread   13  (  0.912585, -0.909120,  1.493424 )     0.70501131
  WF centre and spread   14  (  1.419359,  1.419638, -0.004507 )     0.70593402
  WF centre and spread   15  (  1.409282,  1.404645,  0.004076 )     0.70622862
  WF centre and spread   16  (  2.326637,  2.326637,  1.484604 )     0.69885292
  WF centre and spread   17  ( -1.420000, -1.417889,  0.005740 )     0.70414550
  WF centre and spread   18  ( -1.415963, -1.407547, -0.006546 )     0.70139711
  WF centre and spread   19  ( -1.411730, -1.422238,  0.000853 )     0.68831429
  WF centre and spread   20  ( -0.921742,  0.911583,  1.483138 )     0.70007537
  WF centre and spread   21  ( -0.906527,  0.907274,  1.488439 )     0.70530019
  WF centre and spread   22  ( -0.903991,  0.913358,  1.482274 )     0.68804156
  Sum of centres and spreads ( 11.633148,  6.979901, 13.361495 )    15.49422545

    994    -0.260E-06     0.0004632860       15.4942299412     190.56  <-- CONV
        O_D=      0.0004043 O_OD=      0.2264626 O_TOT=     15.4942299 <-- SPRD
 Delta: O_D=  0.3733537E-09 O_OD= -0.2606427E-06 O_TOT= -0.2602693E-06 <-- DLTA
 ------------------------------------------------------------------------------
 Cycle:    995
  WF centre and spread    1  (  2.326638,  2.326637, -1.484603 )     0.69327705
  WF centre and spread    2  (  2.326641,  2.326639,  1.484602 )     0.71734224
  WF centre and spread    3  (  2.326640,  2.326637,  1.484600 )     0.72778062
  WF centre and spread    4  (  1.419070,  1.423393,  0.000376 )     0.68148911
  WF centre and spread    5  (  2.326634, -2.326638,  1.484600 )     0.72265163
  WF centre and spread    6  ( -0.000003, -0.000001, -0.000004 )     0.71655416
  WF centre and spread    7  (  0.000006,  0.000001, -0.000001 )     0.71800342
  WF centre and spread    8  (  0.000001,  0.000003,  0.000000 )     0.71801875
  WF centre and spread    9  ( -0.000003, -0.000002,  0.000001 )     0.72160206
  WF centre and spread   10  (  0.000001, -0.000000, -0.000003 )     0.68455198
  WF centre and spread   11  (  0.912719, -0.919212,  1.477017 )     0.70419826
  WF centre and spread   12  (  0.906895, -0.903896,  1.483412 )     0.68545538
  WF centre and spread   13  (  0.912585, -0.909120,  1.493424 )     0.70501140
  WF centre and spread   14  (  1.419359,  1.419638, -0.004506 )     0.70593380
  WF centre and spread   15  (  1.409282,  1.404645,  0.004076 )     0.70622852
  WF centre and spread   16  (  2.326637,  2.326637,  1.484604 )     0.69885301
  WF centre and spread   17  ( -1.420000, -1.417889,  0.005740 )     0.70414576
  WF centre and spread   18  ( -1.415964, -1.407547, -0.006545 )     0.70139665
  WF centre and spread   19  ( -1.411730, -1.422238,  0.000853 )     0.68831438
  WF centre and spread   20  ( -0.921742,  0.911583,  1.483138 )     0.70007515
  WF centre and spread   21  ( -0.906527,  0.907274,  1.488439 )     0.70530032
  WF centre and spread   22  ( -0.903992,  0.913359,  1.482275 )     0.68804157
  Sum of centres and spreads ( 11.633148,  6.979901, 13.361495 )    15.49422523

    995    -0.221E-06     0.0004197015       15.4942297203     190.71  <-- CONV
        O_D=      0.0004042 O_OD=      0.2264624 O_TOT=     15.4942297 <-- SPRD
 Delta: O_D= -0.1381420E-07 O_OD= -0.2071529E-06 O_TOT= -0.2209671E-06 <-- DLTA
 ------------------------------------------------------------------------------
 Cycle:    996
  WF centre and spread    1  (  2.326638,  2.326637, -1.484603 )     0.69327756
  WF centre and spread    2  (  2.326641,  2.326639,  1.484602 )     0.71734182
  WF centre and spread    3  (  2.326640,  2.326637,  1.484600 )     0.72778042
  WF centre and spread    4  (  1.419069,  1.423393,  0.000376 )     0.68148921
  WF centre and spread    5  (  2.326634, -2.326638,  1.484600 )     0.72265177
  WF centre and spread    6  ( -0.000003, -0.000001, -0.000004 )     0.71655481
  WF centre and spread    7  (  0.000006,  0.000001, -0.000001 )     0.71800342
  WF centre and spread    8  (  0.000001,  0.000003,  0.000000 )     0.71801875
  WF centre and spread    9  ( -0.000003, -0.000002,  0.000001 )     0.72160207
  WF centre and spread   10  (  0.000001, -0.000000, -0.000003 )     0.68455132
  WF centre and spread   11  (  0.912720, -0.919213,  1.477018 )     0.70419825
  WF centre and spread   12  (  0.906896, -0.903896,  1.483412 )     0.68545522
  WF centre and spread   13  (  0.912584, -0.909120,  1.493424 )     0.70501154
  WF centre and spread   14  (  1.419359,  1.419638, -0.004505 )     0.70593375
  WF centre and spread   15  (  1.409282,  1.404644,  0.004075 )     0.70622841
  WF centre and spread   16  (  2.326637,  2.326637,  1.484604 )     0.69885306
  WF centre and spread   17  ( -1.420001, -1.417890,  0.005740 )     0.70414617
  WF centre and spread   18  ( -1.415964, -1.407547, -0.006544 )     0.70139589
  WF centre and spread   19  ( -1.411730, -1.422238,  0.000852 )     0.68831457
  WF centre and spread   20  ( -0.921742,  0.911582,  1.483138 )     0.70007481
  WF centre and spread   21  ( -0.906527,  0.907274,  1.488438 )     0.70530051
  WF centre and spread   22  ( -0.903992,  0.913359,  1.482275 )     0.68804160
  Sum of centres and spreads ( 11.633148,  6.979901, 13.361495 )    15.49422495

    996    -0.278E-06     0.0004063818       15.4942294420     190.86  <-- CONV
        O_D=      0.0004043 O_OD=      0.2264620 O_TOT=     15.4942294 <-- SPRD
 Delta: O_D=  0.4825153E-07 O_OD= -0.3264885E-06 O_TOT= -0.2782369E-06 <-- DLTA
 ------------------------------------------------------------------------------
 Cycle:    997
  WF centre and spread    1  (  2.326638,  2.326637, -1.484603 )     0.69327750
  WF centre and spread    2  (  2.326641,  2.326639,  1.484602 )     0.71734174
  WF centre and spread    3  (  2.326640,  2.326637,  1.484600 )     0.72778040
  WF centre and spread    4  (  1.419069,  1.423393,  0.000376 )     0.68148922
  WF centre and spread    5  (  2.326634, -2.326638,  1.484600 )     0.72265177
  WF centre and spread    6  ( -0.000003, -0.000001, -0.000004 )     0.71655486
  WF centre and spread    7  (  0.000006,  0.000001, -0.000001 )     0.71800343
  WF centre and spread    8  (  0.000001,  0.000003,  0.000000 )     0.71801874
  WF centre and spread    9  ( -0.000003, -0.000002,  0.000001 )     0.72160206
  WF centre and spread   10  (  0.000001, -0.000000, -0.000003 )     0.68455127
  WF centre and spread   11  (  0.912720, -0.919213,  1.477018 )     0.70419824
  WF centre and spread   12  (  0.906896, -0.903896,  1.483412 )     0.68545515
  WF centre and spread   13  (  0.912584, -0.909120,  1.493424 )     0.70501155
  WF centre and spread   14  (  1.419360,  1.419638, -0.004505 )     0.70593383
  WF centre and spread   15  (  1.409282,  1.404644,  0.004075 )     0.70622837
  WF centre and spread   16  (  2.326637,  2.326637,  1.484604 )     0.69885302
  WF centre and spread   17  ( -1.420001, -1.417890,  0.005740 )     0.70414619
  WF centre and spread   18  ( -1.415964, -1.407547, -0.006544 )     0.70139583
  WF centre and spread   19  ( -1.411730, -1.422238,  0.000852 )     0.68831459
  WF centre and spread   20  ( -0.921742,  0.911582,  1.483138 )     0.70007478
  WF centre and spread   21  ( -0.906527,  0.907274,  1.488438 )     0.70530052
  WF centre and spread   22  ( -0.903992,  0.913359,  1.482275 )     0.68804160
  Sum of centres and spreads ( 11.633148,  6.979901, 13.361495 )    15.49422467

    997    -0.275E-06     0.0006963235       15.4942291672     191.00  <-- CONV
        O_D=      0.0004042 O_OD=      0.2264618 O_TOT=     15.4942292 <-- SPRD
 Delta: O_D= -0.4588651E-07 O_OD= -0.2289730E-06 O_TOT= -0.2748595E-06 <-- DLTA
 ------------------------------------------------------------------------------
 Cycle:    998
  WF centre and spread    1  (  2.326638,  2.326637, -1.484603 )     0.69327734
  WF centre and spread    2  (  2.326641,  2.326639,  1.484602 )     0.71734159
  WF centre and spread    3  (  2.326640,  2.326637,  1.484600 )     0.72778033
  WF centre and spread    4  (  1.419069,  1.423393,  0.000376 )     0.68148924
  WF centre and spread    5  (  2.326634, -2.326638,  1.484600 )     0.72265189
  WF centre and spread    6  ( -0.000003, -0.000001, -0.000004 )     0.71655501
  WF centre and spread    7  (  0.000006,  0.000001, -0.000001 )     0.71800344
  WF centre and spread    8  (  0.000001,  0.000003,  0.000000 )     0.71801873
  WF centre and spread    9  ( -0.000003, -0.000002,  0.000001 )     0.72160205
  WF centre and spread   10  (  0.000001, -0.000000, -0.000003 )     0.68455112
  WF centre and spread   11  (  0.912720, -0.919213,  1.477018 )     0.70419824
  WF centre and spread   12  (  0.906896, -0.903896,  1.483412 )     0.68545509
  WF centre and spread   13  (  0.912584, -0.909120,  1.493424 )     0.70501159
  WF centre and spread   14  (  1.419360,  1.419638, -0.004505 )     0.70593405
  WF centre and spread   15  (  1.409282,  1.404644,  0.004075 )     0.70622834
  WF centre and spread   16  (  2.326637,  2.326637,  1.484604 )     0.69885292
  WF centre and spread   17  ( -1.420001, -1.417890,  0.005739 )     0.70414627
  WF centre and spread   18  ( -1.415964, -1.407546, -0.006544 )     0.70139565
  WF centre and spread   19  ( -1.411730, -1.422238,  0.000852 )     0.68831466
  WF centre and spread   20  ( -0.921742,  0.911582,  1.483138 )     0.70007471
  WF centre and spread   21  ( -0.906527,  0.907274,  1.488438 )     0.70530056
  WF centre and spread   22  ( -0.903992,  0.913359,  1.482275 )     0.68804161
  Sum of centres and spreads ( 11.633148,  6.979901, 13.361495 )    15.49422445

    998    -0.223E-06     0.0004048489       15.4942289441     191.15  <-- CONV
        O_D=      0.0004043 O_OD=      0.2264616 O_TOT=     15.4942289 <-- SPRD
 Delta: O_D=  0.1738855E-07 O_OD= -0.2404884E-06 O_TOT= -0.2230998E-06 <-- DLTA
 ------------------------------------------------------------------------------
 Cycle:    999
  WF centre and spread    1  (  2.326637,  2.326637, -1.484603 )     0.69327714
  WF centre and spread    2  (  2.326640,  2.326638,  1.484602 )     0.71734129
  WF centre and spread    3  (  2.326640,  2.326637,  1.484600 )     0.72778021
  WF centre and spread    4  (  1.419069,  1.423393,  0.000376 )     0.68148929
  WF centre and spread    5  (  2.326634, -2.326638,  1.484601 )     0.72265214
  WF centre and spread    6  ( -0.000003, -0.000001, -0.000004 )     0.71655532
  WF centre and spread    7  (  0.000006,  0.000001, -0.000001 )     0.71800346
  WF centre and spread    8  (  0.000001,  0.000003,  0.000000 )     0.71801872
  WF centre and spread    9  ( -0.000003, -0.000002,  0.000001 )     0.72160204
  WF centre and spread   10  (  0.000001, -0.000000, -0.000003 )     0.68455081
  WF centre and spread   11  (  0.912720, -0.919213,  1.477018 )     0.70419823
  WF centre and spread   12  (  0.906896, -0.903896,  1.483412 )     0.68545499
  WF centre and spread   13  (  0.912584, -0.909119,  1.493424 )     0.70501167
  WF centre and spread   14  (  1.419360,  1.419639, -0.004505 )     0.70593442
  WF centre and spread   15  (  1.409282,  1.404644,  0.004074 )     0.70622833
  WF centre and spread   16  (  2.326637,  2.326637,  1.484604 )     0.69885279
  WF centre and spread   17  ( -1.420001, -1.417890,  0.005739 )     0.70414645
  WF centre and spread   18  ( -1.415964, -1.407546, -0.006544 )     0.70139528
  WF centre and spread   19  ( -1.411730, -1.422238,  0.000852 )     0.68831480
  WF centre and spread   20  ( -0.921742,  0.911582,  1.483139 )     0.70007456
  WF centre and spread   21  ( -0.906527,  0.907274,  1.488437 )     0.70530064
  WF centre and spread   22  ( -0.903992,  0.913360,  1.482275 )     0.68804162
  Sum of centres and spreads ( 11.633148,  6.979901, 13.361495 )    15.49422419

    999    -0.259E-06     0.0004183114       15.4942286850     191.31  <-- CONV
        O_D=      0.0004043 O_OD=      0.2264613 O_TOT=     15.4942287 <-- SPRD
 Delta: O_D=  0.1332039E-08 O_OD= -0.2604360E-06 O_TOT= -0.2591040E-06 <-- DLTA
 ------------------------------------------------------------------------------
 Cycle:   1000
  WF centre and spread    1  (  2.326637,  2.326637, -1.484603 )     0.69327700
  WF centre and spread    2  (  2.326640,  2.326638,  1.484602 )     0.71734084
  WF centre and spread    3  (  2.326640,  2.326637,  1.484600 )     0.72778002
  WF centre and spread    4  (  1.419069,  1.423393,  0.000376 )     0.68148936
  WF centre and spread    5  (  2.326634, -2.326638,  1.484601 )     0.72265249
  WF centre and spread    6  ( -0.000003, -0.000001, -0.000004 )     0.71655581
  WF centre and spread    7  (  0.000006,  0.000001, -0.000001 )     0.71800349
  WF centre and spread    8  (  0.000001,  0.000003,  0.000000 )     0.71801870
  WF centre and spread    9  ( -0.000003, -0.000002,  0.000001 )     0.72160202
  WF centre and spread   10  (  0.000001, -0.000000, -0.000003 )     0.68455031
  WF centre and spread   11  (  0.912720, -0.919214,  1.477018 )     0.70419821
  WF centre and spread   12  (  0.906896, -0.903895,  1.483412 )     0.68545482
  WF centre and spread   13  (  0.912583, -0.909119,  1.493424 )     0.70501178
  WF centre and spread   14  (  1.419360,  1.419639, -0.004504 )     0.70593485
  WF centre and spread   15  (  1.409282,  1.404644,  0.004073 )     0.70622834
  WF centre and spread   16  (  2.326637,  2.326638,  1.484604 )     0.69885263
  WF centre and spread   17  ( -1.420001, -1.417891,  0.005739 )     0.70414677
  WF centre and spread   18  ( -1.415964, -1.407546, -0.006543 )     0.70139469
  WF centre and spread   19  ( -1.411730, -1.422238,  0.000852 )     0.68831501
  WF centre and spread   20  ( -0.921742,  0.911582,  1.483139 )     0.70007431
  WF centre and spread   21  ( -0.906527,  0.907273,  1.488437 )     0.70530079
  WF centre and spread   22  ( -0.903992,  0.913360,  1.482275 )     0.68804163
  Sum of centres and spreads ( 11.633148,  6.979901, 13.361495 )    15.49422388

   1000    -0.312E-06     0.0004656269       15.4942283726     191.45  <-- CONV
        O_D=      0.0004043 O_OD=      0.2264610 O_TOT=     15.4942284 <-- SPRD
 Delta: O_D=  0.1508505E-07 O_OD= -0.3274609E-06 O_TOT= -0.3123758E-06 <-- DLTA
 ------------------------------------------------------------------------------

 Writing checkpoint file tio.chk... done

 Final State
  WF centre and spread    1  (  2.326637,  2.326637, -1.484603 )     0.69327700
  WF centre and spread    2  (  2.326640,  2.326638,  1.484602 )     0.71734084
  WF centre and spread    3  (  2.326640,  2.326637,  1.484600 )     0.72778002
  WF centre and spread    4  (  1.419069,  1.423393,  0.000376 )     0.68148936
  WF centre and spread    5  (  2.326634, -2.326638,  1.484601 )     0.72265249
  WF centre and spread    6  ( -0.000003, -0.000001, -0.000004 )     0.71655581
  WF centre and spread    7  (  0.000006,  0.000001, -0.000001 )     0.71800349
  WF centre and spread    8  (  0.000001,  0.000003,  0.000000 )     0.71801870
  WF centre and spread    9  ( -0.000003, -0.000002,  0.000001 )     0.72160202
  WF centre and spread   10  (  0.000001, -0.000000, -0.000003 )     0.68455031
  WF centre and spread   11  (  0.912720, -0.919214,  1.477018 )     0.70419821
  WF centre and spread   12  (  0.906896, -0.903895,  1.483412 )     0.68545482
  WF centre and spread   13  (  0.912583, -0.909119,  1.493424 )     0.70501178
  WF centre and spread   14  (  1.419360,  1.419639, -0.004504 )     0.70593485
  WF centre and spread   15  (  1.409282,  1.404644,  0.004073 )     0.70622834
  WF centre and spread   16  (  2.326637,  2.326638,  1.484604 )     0.69885263
  WF centre and spread   17  ( -1.420001, -1.417891,  0.005739 )     0.70414677
  WF centre and spread   18  ( -1.415964, -1.407546, -0.006543 )     0.70139469
  WF centre and spread   19  ( -1.411730, -1.422238,  0.000852 )     0.68831501
  WF centre and spread   20  ( -0.921742,  0.911582,  1.483139 )     0.70007431
  WF centre and spread   21  ( -0.906527,  0.907273,  1.488437 )     0.70530079
  WF centre and spread   22  ( -0.903992,  0.913360,  1.482275 )     0.68804163
  Sum of centres and spreads ( 11.633148,  6.979901, 13.361495 )    15.49422388

         Spreads (Ang^2)       Omega I      =    15.267363126
        ================       Omega D      =     0.000404276
                               Omega OD     =     0.226460971
    Final Spread (Ang^2)       Omega Total  =    15.494228373
 ------------------------------------------------------------------------------
 Time for wannierise          145.516 (sec)

 Writing checkpoint file tio.chk... done

 *---------------------------------------------------------------------------*
 |                               PLOTTING                                    |
 *---------------------------------------------------------------------------*


 Calculating interpolated band-structure

 Time to calculate interpolated band structure       4.251 (sec)

 Time for plotting              5.437 (sec)
 Total Execution Time         208.578 (sec)

 *===========================================================================*
 |                             TIMING INFORMATION                            |
 *===========================================================================*
 |    Tag                                                Ncalls      Time (s)|
 |---------------------------------------------------------------------------|
 |kmesh: get                                        :         1         0.210|
 |overlap: allocate                                 :         1         0.001|
 |overlap: read                                     :         1        11.573|
 |dis: main                                         :         1        45.741|
 |wann: main                                        :         1       145.516|
 |plot: main                                        :         1         5.437|
 *---------------------------------------------------------------------------*

 All done: wannier90 exiting
