
     Program PWSCF v.7.0 starts on 14Nov2022 at 17:32:47 

     This program is part of the open-source Quantum ESPRESSO suite
     for quantum simulation of materials; please cite
         "P. Giannozzi et al., J. Phys.:Condens. Matter 21 395502 (2009);
         "P. Giannozzi et al., J. Phys.:Condens. Matter 29 465901 (2017);
         "P. Giannozzi et al., J. Chem. Phys. 152 154105 (2020);
          URL http://www.quantum-espresso.org", 
     in publications or presentations arising from this work. More details at
     http://www.quantum-espresso.org/quote

     Parallel version (MPI & OpenMP), running on       1 processor cores
     Number of MPI processes:                 1
     Threads/MPI process:                     1

     MPI processes distributed on     1 nodes
     3672 MiB available memory on the printing compute node when the environment starts

     Waiting for input...
     Reading input from standard input

     Current dimensions of program PWSCF are:
     Max number of different atomic species (ntypx) = 10
     Max number of k-points (npk) =  40000
     Max angular momentum in pseudopotentials (lmaxx) =  4

     Atomic positions and unit cell read from directory:
     ../tmp/tio.save/
     Atomic positions from file used, from input discarded

     file O.pbesol-n-kjpaw_psl.0.1.UPF: wavefunction(s)  2P renormalized

     Subspace diagonalization in iterative solution of the eigenvalue problem:
     a serial algorithm will be used


     G-vector sticks info
     --------------------
     sticks:   dense  smooth     PW     G-vecs:    dense   smooth      PW
     Sum        1569     787    273                58571    20729    4267

     Using Slab Decomposition



     bravais-lattice index     =            0
     lattice parameter (alat)  =       5.6110  a.u.
     unit-cell volume          =     433.8638 (a.u.)^3
     number of atoms/cell      =            6
     number of atomic types    =            2
     number of electrons       =        48.00
     number of Kohn-Sham states=           80
     kinetic-energy cutoff     =      50.0000  Ry
     charge density cutoff     =     400.0000  Ry
     Exchange-correlation= SLA  PW   PSX  PSC
                           (   1   4  10   8   0   0   0)

     celldm(1)=   5.610980  celldm(2)=   0.000000  celldm(3)=   0.000000
     celldm(4)=   0.000000  celldm(5)=   0.000000  celldm(6)=   0.000000

     crystal axes: (cart. coord. in units of alat)
               a(1) = (   0.000000   0.000000   1.000000 )  
               a(2) = (   1.567179   0.000000   0.000000 )  
               a(3) = (   0.000000   1.567179   0.000000 )  

     reciprocal axes: (cart. coord. in units 2 pi/alat)
               b(1) = (  0.000000  0.000000  1.000000 )  
               b(2) = (  0.638089  0.000000  0.000000 )  
               b(3) = (  0.000000  0.638089  0.000000 )  


     PseudoPot. # 1 for O  read from file:
     ../pseudo/O.pbesol-n-kjpaw_psl.0.1.UPF
     MD5 check sum: 7098f27aa49fc7ac8e826d9ae6d6b4ba
     Pseudo is Projector augmented-wave + core cor, Zval =  6.0
     Generated using "atomic" code by A. Dal Corso  v.6.0 svn rev. 13079
     Shape of augmentation charge: BESSEL
     Using radial grid of 1095 points,  4 beta functions with: 
                l(1) =   0
                l(2) =   0
                l(3) =   1
                l(4) =   1
     Q(r) pseudized with 0 coefficients 


     PseudoPot. # 2 for Ti read from file:
     ../pseudo/ti_pbesol_v1.4.uspp.F.UPF
     MD5 check sum: 25344d407123bf74e0295af7643a8957
     Pseudo is Ultrasoft + core correction, Zval = 12.0
     Generated by new atomic code, or converted to UPF format
     Using radial grid of  851 points,  6 beta functions with: 
                l(1) =   0
                l(2) =   0
                l(3) =   1
                l(4) =   1
                l(5) =   2
                l(6) =   2
     Q(r) pseudized with  6 coefficients,  rinner =    1.000   1.000   1.000
                                                       1.000   1.000

     atomic species   valence    mass     pseudopotential
        O              6.00    15.99940     O ( 1.00)
        Ti            12.00    47.86700     Ti( 1.00)

     No symmetry found


                                    s                        frac. trans.

      isym =  1     identity                                     

 cryst.   s( 1) = (     1          0          0      )
                  (     0          1          0      )
                  (     0          0          1      )

 cart.    s( 1) = (  1.0000000  0.0000000  0.0000000 )
                  (  0.0000000  1.0000000  0.0000000 )
                  (  0.0000000  0.0000000  1.0000000 )


   Cartesian axes

     site n.     atom                  positions (alat units)
         1           Ti  tau(   1) = (   0.7835894   0.7835894   0.5000000  )
         2           Ti  tau(   2) = (   0.0000000   0.0000000   0.0000000  )
         3           O   tau(   3) = (   0.3062581   1.2609207   0.5000000  )
         4           O   tau(   4) = (   1.2609207   0.3062581   0.5000000  )
         5           O   tau(   5) = (   0.4773313   0.4773313   0.0000000  )
         6           O   tau(   6) = (   1.0898475   1.0898475   0.0000000  )

   Crystallographic axes

     site n.     atom                  positions (cryst. coord.)
         1           Ti  tau(   1) = (  0.5000000  0.5000000  0.5000000  )
         2           Ti  tau(   2) = (  0.0000000  0.0000000  0.0000000  )
         3           O   tau(   3) = (  0.5000000  0.1954200  0.8045800  )
         4           O   tau(   4) = (  0.5000000  0.8045800  0.1954200  )
         5           O   tau(   5) = (  0.0000000  0.3045800  0.3045800  )
         6           O   tau(   6) = (  0.0000000  0.6954200  0.6954200  )

     number of k points=   343  Methfessel-Paxton smearing, width (Ry)=  0.0220
                       cart. coord. in units 2pi/alat
        k(    1) = (   0.0000000   0.0000000   0.0000000), wk =   0.0058309
        k(    2) = (   0.0000000   0.0911556   0.0000000), wk =   0.0058309
        k(    3) = (   0.0000000   0.1823112   0.0000000), wk =   0.0058309
        k(    4) = (   0.0000000   0.2734668   0.0000000), wk =   0.0058309
        k(    5) = (   0.0000000   0.3646224   0.0000000), wk =   0.0058309
        k(    6) = (   0.0000000   0.4557781   0.0000000), wk =   0.0058309
        k(    7) = (   0.0000000   0.5469337   0.0000000), wk =   0.0058309
        k(    8) = (   0.0911556   0.0000000   0.0000000), wk =   0.0058309
        k(    9) = (   0.0911556   0.0911556   0.0000000), wk =   0.0058309
        k(   10) = (   0.0911556   0.1823112   0.0000000), wk =   0.0058309
        k(   11) = (   0.0911556   0.2734668   0.0000000), wk =   0.0058309
        k(   12) = (   0.0911556   0.3646224   0.0000000), wk =   0.0058309
        k(   13) = (   0.0911556   0.4557781   0.0000000), wk =   0.0058309
        k(   14) = (   0.0911556   0.5469337   0.0000000), wk =   0.0058309
        k(   15) = (   0.1823112   0.0000000   0.0000000), wk =   0.0058309
        k(   16) = (   0.1823112   0.0911556   0.0000000), wk =   0.0058309
        k(   17) = (   0.1823112   0.1823112   0.0000000), wk =   0.0058309
        k(   18) = (   0.1823112   0.2734668   0.0000000), wk =   0.0058309
        k(   19) = (   0.1823112   0.3646224   0.0000000), wk =   0.0058309
        k(   20) = (   0.1823112   0.4557781   0.0000000), wk =   0.0058309
        k(   21) = (   0.1823112   0.5469337   0.0000000), wk =   0.0058309
        k(   22) = (   0.2734668   0.0000000   0.0000000), wk =   0.0058309
        k(   23) = (   0.2734668   0.0911556   0.0000000), wk =   0.0058309
        k(   24) = (   0.2734668   0.1823112   0.0000000), wk =   0.0058309
        k(   25) = (   0.2734668   0.2734668   0.0000000), wk =   0.0058309
        k(   26) = (   0.2734668   0.3646224   0.0000000), wk =   0.0058309
        k(   27) = (   0.2734668   0.4557781   0.0000000), wk =   0.0058309
        k(   28) = (   0.2734668   0.5469337   0.0000000), wk =   0.0058309
        k(   29) = (   0.3646224   0.0000000   0.0000000), wk =   0.0058309
        k(   30) = (   0.3646224   0.0911556   0.0000000), wk =   0.0058309
        k(   31) = (   0.3646224   0.1823112   0.0000000), wk =   0.0058309
        k(   32) = (   0.3646224   0.2734668   0.0000000), wk =   0.0058309
        k(   33) = (   0.3646224   0.3646224   0.0000000), wk =   0.0058309
        k(   34) = (   0.3646224   0.4557781   0.0000000), wk =   0.0058309
        k(   35) = (   0.3646224   0.5469337   0.0000000), wk =   0.0058309
        k(   36) = (   0.4557781   0.0000000   0.0000000), wk =   0.0058309
        k(   37) = (   0.4557781   0.0911556   0.0000000), wk =   0.0058309
        k(   38) = (   0.4557781   0.1823112   0.0000000), wk =   0.0058309
        k(   39) = (   0.4557781   0.2734668   0.0000000), wk =   0.0058309
        k(   40) = (   0.4557781   0.3646224   0.0000000), wk =   0.0058309
        k(   41) = (   0.4557781   0.4557781   0.0000000), wk =   0.0058309
        k(   42) = (   0.4557781   0.5469337   0.0000000), wk =   0.0058309
        k(   43) = (   0.5469337   0.0000000   0.0000000), wk =   0.0058309
        k(   44) = (   0.5469337   0.0911556   0.0000000), wk =   0.0058309
        k(   45) = (   0.5469337   0.1823112   0.0000000), wk =   0.0058309
        k(   46) = (   0.5469337   0.2734668   0.0000000), wk =   0.0058309
        k(   47) = (   0.5469337   0.3646224   0.0000000), wk =   0.0058309
        k(   48) = (   0.5469337   0.4557781   0.0000000), wk =   0.0058309
        k(   49) = (   0.5469337   0.5469337   0.0000000), wk =   0.0058309
        k(   50) = (   0.0000000   0.0000000   0.1428571), wk =   0.0058309
        k(   51) = (   0.0000000   0.0911556   0.1428571), wk =   0.0058309
        k(   52) = (   0.0000000   0.1823112   0.1428571), wk =   0.0058309
        k(   53) = (   0.0000000   0.2734668   0.1428571), wk =   0.0058309
        k(   54) = (   0.0000000   0.3646224   0.1428571), wk =   0.0058309
        k(   55) = (   0.0000000   0.4557781   0.1428571), wk =   0.0058309
        k(   56) = (   0.0000000   0.5469337   0.1428571), wk =   0.0058309
        k(   57) = (   0.0911556   0.0000000   0.1428571), wk =   0.0058309
        k(   58) = (   0.0911556   0.0911556   0.1428571), wk =   0.0058309
        k(   59) = (   0.0911556   0.1823112   0.1428571), wk =   0.0058309
        k(   60) = (   0.0911556   0.2734668   0.1428571), wk =   0.0058309
        k(   61) = (   0.0911556   0.3646224   0.1428571), wk =   0.0058309
        k(   62) = (   0.0911556   0.4557781   0.1428571), wk =   0.0058309
        k(   63) = (   0.0911556   0.5469337   0.1428571), wk =   0.0058309
        k(   64) = (   0.1823112   0.0000000   0.1428571), wk =   0.0058309
        k(   65) = (   0.1823112   0.0911556   0.1428571), wk =   0.0058309
        k(   66) = (   0.1823112   0.1823112   0.1428571), wk =   0.0058309
        k(   67) = (   0.1823112   0.2734668   0.1428571), wk =   0.0058309
        k(   68) = (   0.1823112   0.3646224   0.1428571), wk =   0.0058309
        k(   69) = (   0.1823112   0.4557781   0.1428571), wk =   0.0058309
        k(   70) = (   0.1823112   0.5469337   0.1428571), wk =   0.0058309
        k(   71) = (   0.2734668   0.0000000   0.1428571), wk =   0.0058309
        k(   72) = (   0.2734668   0.0911556   0.1428571), wk =   0.0058309
        k(   73) = (   0.2734668   0.1823112   0.1428571), wk =   0.0058309
        k(   74) = (   0.2734668   0.2734668   0.1428571), wk =   0.0058309
        k(   75) = (   0.2734668   0.3646224   0.1428571), wk =   0.0058309
        k(   76) = (   0.2734668   0.4557781   0.1428571), wk =   0.0058309
        k(   77) = (   0.2734668   0.5469337   0.1428571), wk =   0.0058309
        k(   78) = (   0.3646224   0.0000000   0.1428571), wk =   0.0058309
        k(   79) = (   0.3646224   0.0911556   0.1428571), wk =   0.0058309
        k(   80) = (   0.3646224   0.1823112   0.1428571), wk =   0.0058309
        k(   81) = (   0.3646224   0.2734668   0.1428571), wk =   0.0058309
        k(   82) = (   0.3646224   0.3646224   0.1428571), wk =   0.0058309
        k(   83) = (   0.3646224   0.4557781   0.1428571), wk =   0.0058309
        k(   84) = (   0.3646224   0.5469337   0.1428571), wk =   0.0058309
        k(   85) = (   0.4557781   0.0000000   0.1428571), wk =   0.0058309
        k(   86) = (   0.4557781   0.0911556   0.1428571), wk =   0.0058309
        k(   87) = (   0.4557781   0.1823112   0.1428571), wk =   0.0058309
        k(   88) = (   0.4557781   0.2734668   0.1428571), wk =   0.0058309
        k(   89) = (   0.4557781   0.3646224   0.1428571), wk =   0.0058309
        k(   90) = (   0.4557781   0.4557781   0.1428571), wk =   0.0058309
        k(   91) = (   0.4557781   0.5469337   0.1428571), wk =   0.0058309
        k(   92) = (   0.5469337   0.0000000   0.1428571), wk =   0.0058309
        k(   93) = (   0.5469337   0.0911556   0.1428571), wk =   0.0058309
        k(   94) = (   0.5469337   0.1823112   0.1428571), wk =   0.0058309
        k(   95) = (   0.5469337   0.2734668   0.1428571), wk =   0.0058309
        k(   96) = (   0.5469337   0.3646224   0.1428571), wk =   0.0058309
        k(   97) = (   0.5469337   0.4557781   0.1428571), wk =   0.0058309
        k(   98) = (   0.5469337   0.5469337   0.1428571), wk =   0.0058309
        k(   99) = (   0.0000000   0.0000000   0.2857143), wk =   0.0058309
        k(  100) = (   0.0000000   0.0911556   0.2857143), wk =   0.0058309
        k(  101) = (   0.0000000   0.1823112   0.2857143), wk =   0.0058309
        k(  102) = (   0.0000000   0.2734668   0.2857143), wk =   0.0058309
        k(  103) = (   0.0000000   0.3646224   0.2857143), wk =   0.0058309
        k(  104) = (   0.0000000   0.4557781   0.2857143), wk =   0.0058309
        k(  105) = (   0.0000000   0.5469337   0.2857143), wk =   0.0058309
        k(  106) = (   0.0911556   0.0000000   0.2857143), wk =   0.0058309
        k(  107) = (   0.0911556   0.0911556   0.2857143), wk =   0.0058309
        k(  108) = (   0.0911556   0.1823112   0.2857143), wk =   0.0058309
        k(  109) = (   0.0911556   0.2734668   0.2857143), wk =   0.0058309
        k(  110) = (   0.0911556   0.3646224   0.2857143), wk =   0.0058309
        k(  111) = (   0.0911556   0.4557781   0.2857143), wk =   0.0058309
        k(  112) = (   0.0911556   0.5469337   0.2857143), wk =   0.0058309
        k(  113) = (   0.1823112   0.0000000   0.2857143), wk =   0.0058309
        k(  114) = (   0.1823112   0.0911556   0.2857143), wk =   0.0058309
        k(  115) = (   0.1823112   0.1823112   0.2857143), wk =   0.0058309
        k(  116) = (   0.1823112   0.2734668   0.2857143), wk =   0.0058309
        k(  117) = (   0.1823112   0.3646224   0.2857143), wk =   0.0058309
        k(  118) = (   0.1823112   0.4557781   0.2857143), wk =   0.0058309
        k(  119) = (   0.1823112   0.5469337   0.2857143), wk =   0.0058309
        k(  120) = (   0.2734668   0.0000000   0.2857143), wk =   0.0058309
        k(  121) = (   0.2734668   0.0911556   0.2857143), wk =   0.0058309
        k(  122) = (   0.2734668   0.1823112   0.2857143), wk =   0.0058309
        k(  123) = (   0.2734668   0.2734668   0.2857143), wk =   0.0058309
        k(  124) = (   0.2734668   0.3646224   0.2857143), wk =   0.0058309
        k(  125) = (   0.2734668   0.4557781   0.2857143), wk =   0.0058309
        k(  126) = (   0.2734668   0.5469337   0.2857143), wk =   0.0058309
        k(  127) = (   0.3646224   0.0000000   0.2857143), wk =   0.0058309
        k(  128) = (   0.3646224   0.0911556   0.2857143), wk =   0.0058309
        k(  129) = (   0.3646224   0.1823112   0.2857143), wk =   0.0058309
        k(  130) = (   0.3646224   0.2734668   0.2857143), wk =   0.0058309
        k(  131) = (   0.3646224   0.3646224   0.2857143), wk =   0.0058309
        k(  132) = (   0.3646224   0.4557781   0.2857143), wk =   0.0058309
        k(  133) = (   0.3646224   0.5469337   0.2857143), wk =   0.0058309
        k(  134) = (   0.4557781   0.0000000   0.2857143), wk =   0.0058309
        k(  135) = (   0.4557781   0.0911556   0.2857143), wk =   0.0058309
        k(  136) = (   0.4557781   0.1823112   0.2857143), wk =   0.0058309
        k(  137) = (   0.4557781   0.2734668   0.2857143), wk =   0.0058309
        k(  138) = (   0.4557781   0.3646224   0.2857143), wk =   0.0058309
        k(  139) = (   0.4557781   0.4557781   0.2857143), wk =   0.0058309
        k(  140) = (   0.4557781   0.5469337   0.2857143), wk =   0.0058309
        k(  141) = (   0.5469337   0.0000000   0.2857143), wk =   0.0058309
        k(  142) = (   0.5469337   0.0911556   0.2857143), wk =   0.0058309
        k(  143) = (   0.5469337   0.1823112   0.2857143), wk =   0.0058309
        k(  144) = (   0.5469337   0.2734668   0.2857143), wk =   0.0058309
        k(  145) = (   0.5469337   0.3646224   0.2857143), wk =   0.0058309
        k(  146) = (   0.5469337   0.4557781   0.2857143), wk =   0.0058309
        k(  147) = (   0.5469337   0.5469337   0.2857143), wk =   0.0058309
        k(  148) = (   0.0000000   0.0000000   0.4285714), wk =   0.0058309
        k(  149) = (   0.0000000   0.0911556   0.4285714), wk =   0.0058309
        k(  150) = (   0.0000000   0.1823112   0.4285714), wk =   0.0058309
        k(  151) = (   0.0000000   0.2734668   0.4285714), wk =   0.0058309
        k(  152) = (   0.0000000   0.3646224   0.4285714), wk =   0.0058309
        k(  153) = (   0.0000000   0.4557781   0.4285714), wk =   0.0058309
        k(  154) = (   0.0000000   0.5469337   0.4285714), wk =   0.0058309
        k(  155) = (   0.0911556   0.0000000   0.4285714), wk =   0.0058309
        k(  156) = (   0.0911556   0.0911556   0.4285714), wk =   0.0058309
        k(  157) = (   0.0911556   0.1823112   0.4285714), wk =   0.0058309
        k(  158) = (   0.0911556   0.2734668   0.4285714), wk =   0.0058309
        k(  159) = (   0.0911556   0.3646224   0.4285714), wk =   0.0058309
        k(  160) = (   0.0911556   0.4557781   0.4285714), wk =   0.0058309
        k(  161) = (   0.0911556   0.5469337   0.4285714), wk =   0.0058309
        k(  162) = (   0.1823112   0.0000000   0.4285714), wk =   0.0058309
        k(  163) = (   0.1823112   0.0911556   0.4285714), wk =   0.0058309
        k(  164) = (   0.1823112   0.1823112   0.4285714), wk =   0.0058309
        k(  165) = (   0.1823112   0.2734668   0.4285714), wk =   0.0058309
        k(  166) = (   0.1823112   0.3646224   0.4285714), wk =   0.0058309
        k(  167) = (   0.1823112   0.4557781   0.4285714), wk =   0.0058309
        k(  168) = (   0.1823112   0.5469337   0.4285714), wk =   0.0058309
        k(  169) = (   0.2734668   0.0000000   0.4285714), wk =   0.0058309
        k(  170) = (   0.2734668   0.0911556   0.4285714), wk =   0.0058309
        k(  171) = (   0.2734668   0.1823112   0.4285714), wk =   0.0058309
        k(  172) = (   0.2734668   0.2734668   0.4285714), wk =   0.0058309
        k(  173) = (   0.2734668   0.3646224   0.4285714), wk =   0.0058309
        k(  174) = (   0.2734668   0.4557781   0.4285714), wk =   0.0058309
        k(  175) = (   0.2734668   0.5469337   0.4285714), wk =   0.0058309
        k(  176) = (   0.3646224   0.0000000   0.4285714), wk =   0.0058309
        k(  177) = (   0.3646224   0.0911556   0.4285714), wk =   0.0058309
        k(  178) = (   0.3646224   0.1823112   0.4285714), wk =   0.0058309
        k(  179) = (   0.3646224   0.2734668   0.4285714), wk =   0.0058309
        k(  180) = (   0.3646224   0.3646224   0.4285714), wk =   0.0058309
        k(  181) = (   0.3646224   0.4557781   0.4285714), wk =   0.0058309
        k(  182) = (   0.3646224   0.5469337   0.4285714), wk =   0.0058309
        k(  183) = (   0.4557781   0.0000000   0.4285714), wk =   0.0058309
        k(  184) = (   0.4557781   0.0911556   0.4285714), wk =   0.0058309
        k(  185) = (   0.4557781   0.1823112   0.4285714), wk =   0.0058309
        k(  186) = (   0.4557781   0.2734668   0.4285714), wk =   0.0058309
        k(  187) = (   0.4557781   0.3646224   0.4285714), wk =   0.0058309
        k(  188) = (   0.4557781   0.4557781   0.4285714), wk =   0.0058309
        k(  189) = (   0.4557781   0.5469337   0.4285714), wk =   0.0058309
        k(  190) = (   0.5469337   0.0000000   0.4285714), wk =   0.0058309
        k(  191) = (   0.5469337   0.0911556   0.4285714), wk =   0.0058309
        k(  192) = (   0.5469337   0.1823112   0.4285714), wk =   0.0058309
        k(  193) = (   0.5469337   0.2734668   0.4285714), wk =   0.0058309
        k(  194) = (   0.5469337   0.3646224   0.4285714), wk =   0.0058309
        k(  195) = (   0.5469337   0.4557781   0.4285714), wk =   0.0058309
        k(  196) = (   0.5469337   0.5469337   0.4285714), wk =   0.0058309
        k(  197) = (   0.0000000   0.0000000   0.5714286), wk =   0.0058309
        k(  198) = (   0.0000000   0.0911556   0.5714286), wk =   0.0058309
        k(  199) = (   0.0000000   0.1823112   0.5714286), wk =   0.0058309
        k(  200) = (   0.0000000   0.2734668   0.5714286), wk =   0.0058309
        k(  201) = (   0.0000000   0.3646224   0.5714286), wk =   0.0058309
        k(  202) = (   0.0000000   0.4557781   0.5714286), wk =   0.0058309
        k(  203) = (   0.0000000   0.5469337   0.5714286), wk =   0.0058309
        k(  204) = (   0.0911556   0.0000000   0.5714286), wk =   0.0058309
        k(  205) = (   0.0911556   0.0911556   0.5714286), wk =   0.0058309
        k(  206) = (   0.0911556   0.1823112   0.5714286), wk =   0.0058309
        k(  207) = (   0.0911556   0.2734668   0.5714286), wk =   0.0058309
        k(  208) = (   0.0911556   0.3646224   0.5714286), wk =   0.0058309
        k(  209) = (   0.0911556   0.4557781   0.5714286), wk =   0.0058309
        k(  210) = (   0.0911556   0.5469337   0.5714286), wk =   0.0058309
        k(  211) = (   0.1823112   0.0000000   0.5714286), wk =   0.0058309
        k(  212) = (   0.1823112   0.0911556   0.5714286), wk =   0.0058309
        k(  213) = (   0.1823112   0.1823112   0.5714286), wk =   0.0058309
        k(  214) = (   0.1823112   0.2734668   0.5714286), wk =   0.0058309
        k(  215) = (   0.1823112   0.3646224   0.5714286), wk =   0.0058309
        k(  216) = (   0.1823112   0.4557781   0.5714286), wk =   0.0058309
        k(  217) = (   0.1823112   0.5469337   0.5714286), wk =   0.0058309
        k(  218) = (   0.2734668   0.0000000   0.5714286), wk =   0.0058309
        k(  219) = (   0.2734668   0.0911556   0.5714286), wk =   0.0058309
        k(  220) = (   0.2734668   0.1823112   0.5714286), wk =   0.0058309
        k(  221) = (   0.2734668   0.2734668   0.5714286), wk =   0.0058309
        k(  222) = (   0.2734668   0.3646224   0.5714286), wk =   0.0058309
        k(  223) = (   0.2734668   0.4557781   0.5714286), wk =   0.0058309
        k(  224) = (   0.2734668   0.5469337   0.5714286), wk =   0.0058309
        k(  225) = (   0.3646224   0.0000000   0.5714286), wk =   0.0058309
        k(  226) = (   0.3646224   0.0911556   0.5714286), wk =   0.0058309
        k(  227) = (   0.3646224   0.1823112   0.5714286), wk =   0.0058309
        k(  228) = (   0.3646224   0.2734668   0.5714286), wk =   0.0058309
        k(  229) = (   0.3646224   0.3646224   0.5714286), wk =   0.0058309
        k(  230) = (   0.3646224   0.4557781   0.5714286), wk =   0.0058309
        k(  231) = (   0.3646224   0.5469337   0.5714286), wk =   0.0058309
        k(  232) = (   0.4557781   0.0000000   0.5714286), wk =   0.0058309
        k(  233) = (   0.4557781   0.0911556   0.5714286), wk =   0.0058309
        k(  234) = (   0.4557781   0.1823112   0.5714286), wk =   0.0058309
        k(  235) = (   0.4557781   0.2734668   0.5714286), wk =   0.0058309
        k(  236) = (   0.4557781   0.3646224   0.5714286), wk =   0.0058309
        k(  237) = (   0.4557781   0.4557781   0.5714286), wk =   0.0058309
        k(  238) = (   0.4557781   0.5469337   0.5714286), wk =   0.0058309
        k(  239) = (   0.5469337   0.0000000   0.5714286), wk =   0.0058309
        k(  240) = (   0.5469337   0.0911556   0.5714286), wk =   0.0058309
        k(  241) = (   0.5469337   0.1823112   0.5714286), wk =   0.0058309
        k(  242) = (   0.5469337   0.2734668   0.5714286), wk =   0.0058309
        k(  243) = (   0.5469337   0.3646224   0.5714286), wk =   0.0058309
        k(  244) = (   0.5469337   0.4557781   0.5714286), wk =   0.0058309
        k(  245) = (   0.5469337   0.5469337   0.5714286), wk =   0.0058309
        k(  246) = (   0.0000000   0.0000000   0.7142857), wk =   0.0058309
        k(  247) = (   0.0000000   0.0911556   0.7142857), wk =   0.0058309
        k(  248) = (   0.0000000   0.1823112   0.7142857), wk =   0.0058309
        k(  249) = (   0.0000000   0.2734668   0.7142857), wk =   0.0058309
        k(  250) = (   0.0000000   0.3646224   0.7142857), wk =   0.0058309
        k(  251) = (   0.0000000   0.4557781   0.7142857), wk =   0.0058309
        k(  252) = (   0.0000000   0.5469337   0.7142857), wk =   0.0058309
        k(  253) = (   0.0911556   0.0000000   0.7142857), wk =   0.0058309
        k(  254) = (   0.0911556   0.0911556   0.7142857), wk =   0.0058309
        k(  255) = (   0.0911556   0.1823112   0.7142857), wk =   0.0058309
        k(  256) = (   0.0911556   0.2734668   0.7142857), wk =   0.0058309
        k(  257) = (   0.0911556   0.3646224   0.7142857), wk =   0.0058309
        k(  258) = (   0.0911556   0.4557781   0.7142857), wk =   0.0058309
        k(  259) = (   0.0911556   0.5469337   0.7142857), wk =   0.0058309
        k(  260) = (   0.1823112   0.0000000   0.7142857), wk =   0.0058309
        k(  261) = (   0.1823112   0.0911556   0.7142857), wk =   0.0058309
        k(  262) = (   0.1823112   0.1823112   0.7142857), wk =   0.0058309
        k(  263) = (   0.1823112   0.2734668   0.7142857), wk =   0.0058309
        k(  264) = (   0.1823112   0.3646224   0.7142857), wk =   0.0058309
        k(  265) = (   0.1823112   0.4557781   0.7142857), wk =   0.0058309
        k(  266) = (   0.1823112   0.5469337   0.7142857), wk =   0.0058309
        k(  267) = (   0.2734668   0.0000000   0.7142857), wk =   0.0058309
        k(  268) = (   0.2734668   0.0911556   0.7142857), wk =   0.0058309
        k(  269) = (   0.2734668   0.1823112   0.7142857), wk =   0.0058309
        k(  270) = (   0.2734668   0.2734668   0.7142857), wk =   0.0058309
        k(  271) = (   0.2734668   0.3646224   0.7142857), wk =   0.0058309
        k(  272) = (   0.2734668   0.4557781   0.7142857), wk =   0.0058309
        k(  273) = (   0.2734668   0.5469337   0.7142857), wk =   0.0058309
        k(  274) = (   0.3646224   0.0000000   0.7142857), wk =   0.0058309
        k(  275) = (   0.3646224   0.0911556   0.7142857), wk =   0.0058309
        k(  276) = (   0.3646224   0.1823112   0.7142857), wk =   0.0058309
        k(  277) = (   0.3646224   0.2734668   0.7142857), wk =   0.0058309
        k(  278) = (   0.3646224   0.3646224   0.7142857), wk =   0.0058309
        k(  279) = (   0.3646224   0.4557781   0.7142857), wk =   0.0058309
        k(  280) = (   0.3646224   0.5469337   0.7142857), wk =   0.0058309
        k(  281) = (   0.4557781   0.0000000   0.7142857), wk =   0.0058309
        k(  282) = (   0.4557781   0.0911556   0.7142857), wk =   0.0058309
        k(  283) = (   0.4557781   0.1823112   0.7142857), wk =   0.0058309
        k(  284) = (   0.4557781   0.2734668   0.7142857), wk =   0.0058309
        k(  285) = (   0.4557781   0.3646224   0.7142857), wk =   0.0058309
        k(  286) = (   0.4557781   0.4557781   0.7142857), wk =   0.0058309
        k(  287) = (   0.4557781   0.5469337   0.7142857), wk =   0.0058309
        k(  288) = (   0.5469337   0.0000000   0.7142857), wk =   0.0058309
        k(  289) = (   0.5469337   0.0911556   0.7142857), wk =   0.0058309
        k(  290) = (   0.5469337   0.1823112   0.7142857), wk =   0.0058309
        k(  291) = (   0.5469337   0.2734668   0.7142857), wk =   0.0058309
        k(  292) = (   0.5469337   0.3646224   0.7142857), wk =   0.0058309
        k(  293) = (   0.5469337   0.4557781   0.7142857), wk =   0.0058309
        k(  294) = (   0.5469337   0.5469337   0.7142857), wk =   0.0058309
        k(  295) = (   0.0000000   0.0000000   0.8571429), wk =   0.0058309
        k(  296) = (   0.0000000   0.0911556   0.8571429), wk =   0.0058309
        k(  297) = (   0.0000000   0.1823112   0.8571429), wk =   0.0058309
        k(  298) = (   0.0000000   0.2734668   0.8571429), wk =   0.0058309
        k(  299) = (   0.0000000   0.3646224   0.8571429), wk =   0.0058309
        k(  300) = (   0.0000000   0.4557781   0.8571429), wk =   0.0058309
        k(  301) = (   0.0000000   0.5469337   0.8571429), wk =   0.0058309
        k(  302) = (   0.0911556   0.0000000   0.8571429), wk =   0.0058309
        k(  303) = (   0.0911556   0.0911556   0.8571429), wk =   0.0058309
        k(  304) = (   0.0911556   0.1823112   0.8571429), wk =   0.0058309
        k(  305) = (   0.0911556   0.2734668   0.8571429), wk =   0.0058309
        k(  306) = (   0.0911556   0.3646224   0.8571429), wk =   0.0058309
        k(  307) = (   0.0911556   0.4557781   0.8571429), wk =   0.0058309
        k(  308) = (   0.0911556   0.5469337   0.8571429), wk =   0.0058309
        k(  309) = (   0.1823112   0.0000000   0.8571429), wk =   0.0058309
        k(  310) = (   0.1823112   0.0911556   0.8571429), wk =   0.0058309
        k(  311) = (   0.1823112   0.1823112   0.8571429), wk =   0.0058309
        k(  312) = (   0.1823112   0.2734668   0.8571429), wk =   0.0058309
        k(  313) = (   0.1823112   0.3646224   0.8571429), wk =   0.0058309
        k(  314) = (   0.1823112   0.4557781   0.8571429), wk =   0.0058309
        k(  315) = (   0.1823112   0.5469337   0.8571429), wk =   0.0058309
        k(  316) = (   0.2734668   0.0000000   0.8571429), wk =   0.0058309
        k(  317) = (   0.2734668   0.0911556   0.8571429), wk =   0.0058309
        k(  318) = (   0.2734668   0.1823112   0.8571429), wk =   0.0058309
        k(  319) = (   0.2734668   0.2734668   0.8571429), wk =   0.0058309
        k(  320) = (   0.2734668   0.3646224   0.8571429), wk =   0.0058309
        k(  321) = (   0.2734668   0.4557781   0.8571429), wk =   0.0058309
        k(  322) = (   0.2734668   0.5469337   0.8571429), wk =   0.0058309
        k(  323) = (   0.3646224   0.0000000   0.8571429), wk =   0.0058309
        k(  324) = (   0.3646224   0.0911556   0.8571429), wk =   0.0058309
        k(  325) = (   0.3646224   0.1823112   0.8571429), wk =   0.0058309
        k(  326) = (   0.3646224   0.2734668   0.8571429), wk =   0.0058309
        k(  327) = (   0.3646224   0.3646224   0.8571429), wk =   0.0058309
        k(  328) = (   0.3646224   0.4557781   0.8571429), wk =   0.0058309
        k(  329) = (   0.3646224   0.5469337   0.8571429), wk =   0.0058309
        k(  330) = (   0.4557781   0.0000000   0.8571429), wk =   0.0058309
        k(  331) = (   0.4557781   0.0911556   0.8571429), wk =   0.0058309
        k(  332) = (   0.4557781   0.1823112   0.8571429), wk =   0.0058309
        k(  333) = (   0.4557781   0.2734668   0.8571429), wk =   0.0058309
        k(  334) = (   0.4557781   0.3646224   0.8571429), wk =   0.0058309
        k(  335) = (   0.4557781   0.4557781   0.8571429), wk =   0.0058309
        k(  336) = (   0.4557781   0.5469337   0.8571429), wk =   0.0058309
        k(  337) = (   0.5469337   0.0000000   0.8571429), wk =   0.0058309
        k(  338) = (   0.5469337   0.0911556   0.8571429), wk =   0.0058309
        k(  339) = (   0.5469337   0.1823112   0.8571429), wk =   0.0058309
        k(  340) = (   0.5469337   0.2734668   0.8571429), wk =   0.0058309
        k(  341) = (   0.5469337   0.3646224   0.8571429), wk =   0.0058309
        k(  342) = (   0.5469337   0.4557781   0.8571429), wk =   0.0058309
        k(  343) = (   0.5469337   0.5469337   0.8571429), wk =   0.0058309

                       cryst. coord.
        k(    1) = (   0.0000000   0.0000000   0.0000000), wk =   0.0058309
        k(    2) = (   0.0000000   0.0000000   0.1428571), wk =   0.0058309
        k(    3) = (   0.0000000   0.0000000   0.2857143), wk =   0.0058309
        k(    4) = (   0.0000000   0.0000000   0.4285714), wk =   0.0058309
        k(    5) = (   0.0000000   0.0000000   0.5714286), wk =   0.0058309
        k(    6) = (   0.0000000   0.0000000   0.7142857), wk =   0.0058309
        k(    7) = (   0.0000000   0.0000000   0.8571429), wk =   0.0058309
        k(    8) = (   0.0000000   0.1428571   0.0000000), wk =   0.0058309
        k(    9) = (   0.0000000   0.1428571   0.1428571), wk =   0.0058309
        k(   10) = (   0.0000000   0.1428571   0.2857143), wk =   0.0058309
        k(   11) = (   0.0000000   0.1428571   0.4285714), wk =   0.0058309
        k(   12) = (   0.0000000   0.1428571   0.5714286), wk =   0.0058309
        k(   13) = (   0.0000000   0.1428571   0.7142857), wk =   0.0058309
        k(   14) = (   0.0000000   0.1428571   0.8571429), wk =   0.0058309
        k(   15) = (   0.0000000   0.2857143   0.0000000), wk =   0.0058309
        k(   16) = (   0.0000000   0.2857143   0.1428571), wk =   0.0058309
        k(   17) = (   0.0000000   0.2857143   0.2857143), wk =   0.0058309
        k(   18) = (   0.0000000   0.2857143   0.4285714), wk =   0.0058309
        k(   19) = (   0.0000000   0.2857143   0.5714286), wk =   0.0058309
        k(   20) = (   0.0000000   0.2857143   0.7142857), wk =   0.0058309
        k(   21) = (   0.0000000   0.2857143   0.8571429), wk =   0.0058309
        k(   22) = (   0.0000000   0.4285714   0.0000000), wk =   0.0058309
        k(   23) = (   0.0000000   0.4285714   0.1428571), wk =   0.0058309
        k(   24) = (   0.0000000   0.4285714   0.2857143), wk =   0.0058309
        k(   25) = (   0.0000000   0.4285714   0.4285714), wk =   0.0058309
        k(   26) = (   0.0000000   0.4285714   0.5714286), wk =   0.0058309
        k(   27) = (   0.0000000   0.4285714   0.7142857), wk =   0.0058309
        k(   28) = (   0.0000000   0.4285714   0.8571429), wk =   0.0058309
        k(   29) = (   0.0000000   0.5714286   0.0000000), wk =   0.0058309
        k(   30) = (   0.0000000   0.5714286   0.1428571), wk =   0.0058309
        k(   31) = (   0.0000000   0.5714286   0.2857143), wk =   0.0058309
        k(   32) = (   0.0000000   0.5714286   0.4285714), wk =   0.0058309
        k(   33) = (   0.0000000   0.5714286   0.5714286), wk =   0.0058309
        k(   34) = (   0.0000000   0.5714286   0.7142857), wk =   0.0058309
        k(   35) = (   0.0000000   0.5714286   0.8571429), wk =   0.0058309
        k(   36) = (   0.0000000   0.7142857   0.0000000), wk =   0.0058309
        k(   37) = (   0.0000000   0.7142857   0.1428571), wk =   0.0058309
        k(   38) = (   0.0000000   0.7142857   0.2857143), wk =   0.0058309
        k(   39) = (   0.0000000   0.7142857   0.4285714), wk =   0.0058309
        k(   40) = (   0.0000000   0.7142857   0.5714286), wk =   0.0058309
        k(   41) = (   0.0000000   0.7142857   0.7142857), wk =   0.0058309
        k(   42) = (   0.0000000   0.7142857   0.8571429), wk =   0.0058309
        k(   43) = (   0.0000000   0.8571429   0.0000000), wk =   0.0058309
        k(   44) = (   0.0000000   0.8571429   0.1428571), wk =   0.0058309
        k(   45) = (   0.0000000   0.8571429   0.2857143), wk =   0.0058309
        k(   46) = (   0.0000000   0.8571429   0.4285714), wk =   0.0058309
        k(   47) = (   0.0000000   0.8571429   0.5714286), wk =   0.0058309
        k(   48) = (   0.0000000   0.8571429   0.7142857), wk =   0.0058309
        k(   49) = (   0.0000000   0.8571429   0.8571429), wk =   0.0058309
        k(   50) = (   0.1428571   0.0000000   0.0000000), wk =   0.0058309
        k(   51) = (   0.1428571   0.0000000   0.1428571), wk =   0.0058309
        k(   52) = (   0.1428571   0.0000000   0.2857143), wk =   0.0058309
        k(   53) = (   0.1428571   0.0000000   0.4285714), wk =   0.0058309
        k(   54) = (   0.1428571   0.0000000   0.5714286), wk =   0.0058309
        k(   55) = (   0.1428571   0.0000000   0.7142857), wk =   0.0058309
        k(   56) = (   0.1428571   0.0000000   0.8571429), wk =   0.0058309
        k(   57) = (   0.1428571   0.1428571   0.0000000), wk =   0.0058309
        k(   58) = (   0.1428571   0.1428571   0.1428571), wk =   0.0058309
        k(   59) = (   0.1428571   0.1428571   0.2857143), wk =   0.0058309
        k(   60) = (   0.1428571   0.1428571   0.4285714), wk =   0.0058309
        k(   61) = (   0.1428571   0.1428571   0.5714286), wk =   0.0058309
        k(   62) = (   0.1428571   0.1428571   0.7142857), wk =   0.0058309
        k(   63) = (   0.1428571   0.1428571   0.8571429), wk =   0.0058309
        k(   64) = (   0.1428571   0.2857143   0.0000000), wk =   0.0058309
        k(   65) = (   0.1428571   0.2857143   0.1428571), wk =   0.0058309
        k(   66) = (   0.1428571   0.2857143   0.2857143), wk =   0.0058309
        k(   67) = (   0.1428571   0.2857143   0.4285714), wk =   0.0058309
        k(   68) = (   0.1428571   0.2857143   0.5714286), wk =   0.0058309
        k(   69) = (   0.1428571   0.2857143   0.7142857), wk =   0.0058309
        k(   70) = (   0.1428571   0.2857143   0.8571429), wk =   0.0058309
        k(   71) = (   0.1428571   0.4285714   0.0000000), wk =   0.0058309
        k(   72) = (   0.1428571   0.4285714   0.1428571), wk =   0.0058309
        k(   73) = (   0.1428571   0.4285714   0.2857143), wk =   0.0058309
        k(   74) = (   0.1428571   0.4285714   0.4285714), wk =   0.0058309
        k(   75) = (   0.1428571   0.4285714   0.5714286), wk =   0.0058309
        k(   76) = (   0.1428571   0.4285714   0.7142857), wk =   0.0058309
        k(   77) = (   0.1428571   0.4285714   0.8571429), wk =   0.0058309
        k(   78) = (   0.1428571   0.5714286   0.0000000), wk =   0.0058309
        k(   79) = (   0.1428571   0.5714286   0.1428571), wk =   0.0058309
        k(   80) = (   0.1428571   0.5714286   0.2857143), wk =   0.0058309
        k(   81) = (   0.1428571   0.5714286   0.4285714), wk =   0.0058309
        k(   82) = (   0.1428571   0.5714286   0.5714286), wk =   0.0058309
        k(   83) = (   0.1428571   0.5714286   0.7142857), wk =   0.0058309
        k(   84) = (   0.1428571   0.5714286   0.8571429), wk =   0.0058309
        k(   85) = (   0.1428571   0.7142857   0.0000000), wk =   0.0058309
        k(   86) = (   0.1428571   0.7142857   0.1428571), wk =   0.0058309
        k(   87) = (   0.1428571   0.7142857   0.2857143), wk =   0.0058309
        k(   88) = (   0.1428571   0.7142857   0.4285714), wk =   0.0058309
        k(   89) = (   0.1428571   0.7142857   0.5714286), wk =   0.0058309
        k(   90) = (   0.1428571   0.7142857   0.7142857), wk =   0.0058309
        k(   91) = (   0.1428571   0.7142857   0.8571429), wk =   0.0058309
        k(   92) = (   0.1428571   0.8571429   0.0000000), wk =   0.0058309
        k(   93) = (   0.1428571   0.8571429   0.1428571), wk =   0.0058309
        k(   94) = (   0.1428571   0.8571429   0.2857143), wk =   0.0058309
        k(   95) = (   0.1428571   0.8571429   0.4285714), wk =   0.0058309
        k(   96) = (   0.1428571   0.8571429   0.5714286), wk =   0.0058309
        k(   97) = (   0.1428571   0.8571429   0.7142857), wk =   0.0058309
        k(   98) = (   0.1428571   0.8571429   0.8571429), wk =   0.0058309
        k(   99) = (   0.2857143   0.0000000   0.0000000), wk =   0.0058309
        k(  100) = (   0.2857143   0.0000000   0.1428571), wk =   0.0058309
        k(  101) = (   0.2857143   0.0000000   0.2857143), wk =   0.0058309
        k(  102) = (   0.2857143   0.0000000   0.4285714), wk =   0.0058309
        k(  103) = (   0.2857143   0.0000000   0.5714286), wk =   0.0058309
        k(  104) = (   0.2857143   0.0000000   0.7142857), wk =   0.0058309
        k(  105) = (   0.2857143   0.0000000   0.8571429), wk =   0.0058309
        k(  106) = (   0.2857143   0.1428571   0.0000000), wk =   0.0058309
        k(  107) = (   0.2857143   0.1428571   0.1428571), wk =   0.0058309
        k(  108) = (   0.2857143   0.1428571   0.2857143), wk =   0.0058309
        k(  109) = (   0.2857143   0.1428571   0.4285714), wk =   0.0058309
        k(  110) = (   0.2857143   0.1428571   0.5714286), wk =   0.0058309
        k(  111) = (   0.2857143   0.1428571   0.7142857), wk =   0.0058309
        k(  112) = (   0.2857143   0.1428571   0.8571429), wk =   0.0058309
        k(  113) = (   0.2857143   0.2857143   0.0000000), wk =   0.0058309
        k(  114) = (   0.2857143   0.2857143   0.1428571), wk =   0.0058309
        k(  115) = (   0.2857143   0.2857143   0.2857143), wk =   0.0058309
        k(  116) = (   0.2857143   0.2857143   0.4285714), wk =   0.0058309
        k(  117) = (   0.2857143   0.2857143   0.5714286), wk =   0.0058309
        k(  118) = (   0.2857143   0.2857143   0.7142857), wk =   0.0058309
        k(  119) = (   0.2857143   0.2857143   0.8571429), wk =   0.0058309
        k(  120) = (   0.2857143   0.4285714   0.0000000), wk =   0.0058309
        k(  121) = (   0.2857143   0.4285714   0.1428571), wk =   0.0058309
        k(  122) = (   0.2857143   0.4285714   0.2857143), wk =   0.0058309
        k(  123) = (   0.2857143   0.4285714   0.4285714), wk =   0.0058309
        k(  124) = (   0.2857143   0.4285714   0.5714286), wk =   0.0058309
        k(  125) = (   0.2857143   0.4285714   0.7142857), wk =   0.0058309
        k(  126) = (   0.2857143   0.4285714   0.8571429), wk =   0.0058309
        k(  127) = (   0.2857143   0.5714286   0.0000000), wk =   0.0058309
        k(  128) = (   0.2857143   0.5714286   0.1428571), wk =   0.0058309
        k(  129) = (   0.2857143   0.5714286   0.2857143), wk =   0.0058309
        k(  130) = (   0.2857143   0.5714286   0.4285714), wk =   0.0058309
        k(  131) = (   0.2857143   0.5714286   0.5714286), wk =   0.0058309
        k(  132) = (   0.2857143   0.5714286   0.7142857), wk =   0.0058309
        k(  133) = (   0.2857143   0.5714286   0.8571429), wk =   0.0058309
        k(  134) = (   0.2857143   0.7142857   0.0000000), wk =   0.0058309
        k(  135) = (   0.2857143   0.7142857   0.1428571), wk =   0.0058309
        k(  136) = (   0.2857143   0.7142857   0.2857143), wk =   0.0058309
        k(  137) = (   0.2857143   0.7142857   0.4285714), wk =   0.0058309
        k(  138) = (   0.2857143   0.7142857   0.5714286), wk =   0.0058309
        k(  139) = (   0.2857143   0.7142857   0.7142857), wk =   0.0058309
        k(  140) = (   0.2857143   0.7142857   0.8571429), wk =   0.0058309
        k(  141) = (   0.2857143   0.8571429   0.0000000), wk =   0.0058309
        k(  142) = (   0.2857143   0.8571429   0.1428571), wk =   0.0058309
        k(  143) = (   0.2857143   0.8571429   0.2857143), wk =   0.0058309
        k(  144) = (   0.2857143   0.8571429   0.4285714), wk =   0.0058309
        k(  145) = (   0.2857143   0.8571429   0.5714286), wk =   0.0058309
        k(  146) = (   0.2857143   0.8571429   0.7142857), wk =   0.0058309
        k(  147) = (   0.2857143   0.8571429   0.8571429), wk =   0.0058309
        k(  148) = (   0.4285714   0.0000000   0.0000000), wk =   0.0058309
        k(  149) = (   0.4285714   0.0000000   0.1428571), wk =   0.0058309
        k(  150) = (   0.4285714   0.0000000   0.2857143), wk =   0.0058309
        k(  151) = (   0.4285714   0.0000000   0.4285714), wk =   0.0058309
        k(  152) = (   0.4285714   0.0000000   0.5714286), wk =   0.0058309
        k(  153) = (   0.4285714   0.0000000   0.7142857), wk =   0.0058309
        k(  154) = (   0.4285714   0.0000000   0.8571429), wk =   0.0058309
        k(  155) = (   0.4285714   0.1428571   0.0000000), wk =   0.0058309
        k(  156) = (   0.4285714   0.1428571   0.1428571), wk =   0.0058309
        k(  157) = (   0.4285714   0.1428571   0.2857143), wk =   0.0058309
        k(  158) = (   0.4285714   0.1428571   0.4285714), wk =   0.0058309
        k(  159) = (   0.4285714   0.1428571   0.5714286), wk =   0.0058309
        k(  160) = (   0.4285714   0.1428571   0.7142857), wk =   0.0058309
        k(  161) = (   0.4285714   0.1428571   0.8571429), wk =   0.0058309
        k(  162) = (   0.4285714   0.2857143   0.0000000), wk =   0.0058309
        k(  163) = (   0.4285714   0.2857143   0.1428571), wk =   0.0058309
        k(  164) = (   0.4285714   0.2857143   0.2857143), wk =   0.0058309
        k(  165) = (   0.4285714   0.2857143   0.4285714), wk =   0.0058309
        k(  166) = (   0.4285714   0.2857143   0.5714286), wk =   0.0058309
        k(  167) = (   0.4285714   0.2857143   0.7142857), wk =   0.0058309
        k(  168) = (   0.4285714   0.2857143   0.8571429), wk =   0.0058309
        k(  169) = (   0.4285714   0.4285714   0.0000000), wk =   0.0058309
        k(  170) = (   0.4285714   0.4285714   0.1428571), wk =   0.0058309
        k(  171) = (   0.4285714   0.4285714   0.2857143), wk =   0.0058309
        k(  172) = (   0.4285714   0.4285714   0.4285714), wk =   0.0058309
        k(  173) = (   0.4285714   0.4285714   0.5714286), wk =   0.0058309
        k(  174) = (   0.4285714   0.4285714   0.7142857), wk =   0.0058309
        k(  175) = (   0.4285714   0.4285714   0.8571429), wk =   0.0058309
        k(  176) = (   0.4285714   0.5714286   0.0000000), wk =   0.0058309
        k(  177) = (   0.4285714   0.5714286   0.1428571), wk =   0.0058309
        k(  178) = (   0.4285714   0.5714286   0.2857143), wk =   0.0058309
        k(  179) = (   0.4285714   0.5714286   0.4285714), wk =   0.0058309
        k(  180) = (   0.4285714   0.5714286   0.5714286), wk =   0.0058309
        k(  181) = (   0.4285714   0.5714286   0.7142857), wk =   0.0058309
        k(  182) = (   0.4285714   0.5714286   0.8571429), wk =   0.0058309
        k(  183) = (   0.4285714   0.7142857   0.0000000), wk =   0.0058309
        k(  184) = (   0.4285714   0.7142857   0.1428571), wk =   0.0058309
        k(  185) = (   0.4285714   0.7142857   0.2857143), wk =   0.0058309
        k(  186) = (   0.4285714   0.7142857   0.4285714), wk =   0.0058309
        k(  187) = (   0.4285714   0.7142857   0.5714286), wk =   0.0058309
        k(  188) = (   0.4285714   0.7142857   0.7142857), wk =   0.0058309
        k(  189) = (   0.4285714   0.7142857   0.8571429), wk =   0.0058309
        k(  190) = (   0.4285714   0.8571429   0.0000000), wk =   0.0058309
        k(  191) = (   0.4285714   0.8571429   0.1428571), wk =   0.0058309
        k(  192) = (   0.4285714   0.8571429   0.2857143), wk =   0.0058309
        k(  193) = (   0.4285714   0.8571429   0.4285714), wk =   0.0058309
        k(  194) = (   0.4285714   0.8571429   0.5714286), wk =   0.0058309
        k(  195) = (   0.4285714   0.8571429   0.7142857), wk =   0.0058309
        k(  196) = (   0.4285714   0.8571429   0.8571429), wk =   0.0058309
        k(  197) = (   0.5714286   0.0000000   0.0000000), wk =   0.0058309
        k(  198) = (   0.5714286   0.0000000   0.1428571), wk =   0.0058309
        k(  199) = (   0.5714286   0.0000000   0.2857143), wk =   0.0058309
        k(  200) = (   0.5714286   0.0000000   0.4285714), wk =   0.0058309
        k(  201) = (   0.5714286   0.0000000   0.5714286), wk =   0.0058309
        k(  202) = (   0.5714286   0.0000000   0.7142857), wk =   0.0058309
        k(  203) = (   0.5714286   0.0000000   0.8571429), wk =   0.0058309
        k(  204) = (   0.5714286   0.1428571   0.0000000), wk =   0.0058309
        k(  205) = (   0.5714286   0.1428571   0.1428571), wk =   0.0058309
        k(  206) = (   0.5714286   0.1428571   0.2857143), wk =   0.0058309
        k(  207) = (   0.5714286   0.1428571   0.4285714), wk =   0.0058309
        k(  208) = (   0.5714286   0.1428571   0.5714286), wk =   0.0058309
        k(  209) = (   0.5714286   0.1428571   0.7142857), wk =   0.0058309
        k(  210) = (   0.5714286   0.1428571   0.8571429), wk =   0.0058309
        k(  211) = (   0.5714286   0.2857143   0.0000000), wk =   0.0058309
        k(  212) = (   0.5714286   0.2857143   0.1428571), wk =   0.0058309
        k(  213) = (   0.5714286   0.2857143   0.2857143), wk =   0.0058309
        k(  214) = (   0.5714286   0.2857143   0.4285714), wk =   0.0058309
        k(  215) = (   0.5714286   0.2857143   0.5714286), wk =   0.0058309
        k(  216) = (   0.5714286   0.2857143   0.7142857), wk =   0.0058309
        k(  217) = (   0.5714286   0.2857143   0.8571429), wk =   0.0058309
        k(  218) = (   0.5714286   0.4285714   0.0000000), wk =   0.0058309
        k(  219) = (   0.5714286   0.4285714   0.1428571), wk =   0.0058309
        k(  220) = (   0.5714286   0.4285714   0.2857143), wk =   0.0058309
        k(  221) = (   0.5714286   0.4285714   0.4285714), wk =   0.0058309
        k(  222) = (   0.5714286   0.4285714   0.5714286), wk =   0.0058309
        k(  223) = (   0.5714286   0.4285714   0.7142857), wk =   0.0058309
        k(  224) = (   0.5714286   0.4285714   0.8571429), wk =   0.0058309
        k(  225) = (   0.5714286   0.5714286   0.0000000), wk =   0.0058309
        k(  226) = (   0.5714286   0.5714286   0.1428571), wk =   0.0058309
        k(  227) = (   0.5714286   0.5714286   0.2857143), wk =   0.0058309
        k(  228) = (   0.5714286   0.5714286   0.4285714), wk =   0.0058309
        k(  229) = (   0.5714286   0.5714286   0.5714286), wk =   0.0058309
        k(  230) = (   0.5714286   0.5714286   0.7142857), wk =   0.0058309
        k(  231) = (   0.5714286   0.5714286   0.8571429), wk =   0.0058309
        k(  232) = (   0.5714286   0.7142857   0.0000000), wk =   0.0058309
        k(  233) = (   0.5714286   0.7142857   0.1428571), wk =   0.0058309
        k(  234) = (   0.5714286   0.7142857   0.2857143), wk =   0.0058309
        k(  235) = (   0.5714286   0.7142857   0.4285714), wk =   0.0058309
        k(  236) = (   0.5714286   0.7142857   0.5714286), wk =   0.0058309
        k(  237) = (   0.5714286   0.7142857   0.7142857), wk =   0.0058309
        k(  238) = (   0.5714286   0.7142857   0.8571429), wk =   0.0058309
        k(  239) = (   0.5714286   0.8571429   0.0000000), wk =   0.0058309
        k(  240) = (   0.5714286   0.8571429   0.1428571), wk =   0.0058309
        k(  241) = (   0.5714286   0.8571429   0.2857143), wk =   0.0058309
        k(  242) = (   0.5714286   0.8571429   0.4285714), wk =   0.0058309
        k(  243) = (   0.5714286   0.8571429   0.5714286), wk =   0.0058309
        k(  244) = (   0.5714286   0.8571429   0.7142857), wk =   0.0058309
        k(  245) = (   0.5714286   0.8571429   0.8571429), wk =   0.0058309
        k(  246) = (   0.7142857   0.0000000   0.0000000), wk =   0.0058309
        k(  247) = (   0.7142857   0.0000000   0.1428571), wk =   0.0058309
        k(  248) = (   0.7142857   0.0000000   0.2857143), wk =   0.0058309
        k(  249) = (   0.7142857   0.0000000   0.4285714), wk =   0.0058309
        k(  250) = (   0.7142857   0.0000000   0.5714286), wk =   0.0058309
        k(  251) = (   0.7142857   0.0000000   0.7142857), wk =   0.0058309
        k(  252) = (   0.7142857   0.0000000   0.8571429), wk =   0.0058309
        k(  253) = (   0.7142857   0.1428571   0.0000000), wk =   0.0058309
        k(  254) = (   0.7142857   0.1428571   0.1428571), wk =   0.0058309
        k(  255) = (   0.7142857   0.1428571   0.2857143), wk =   0.0058309
        k(  256) = (   0.7142857   0.1428571   0.4285714), wk =   0.0058309
        k(  257) = (   0.7142857   0.1428571   0.5714286), wk =   0.0058309
        k(  258) = (   0.7142857   0.1428571   0.7142857), wk =   0.0058309
        k(  259) = (   0.7142857   0.1428571   0.8571429), wk =   0.0058309
        k(  260) = (   0.7142857   0.2857143   0.0000000), wk =   0.0058309
        k(  261) = (   0.7142857   0.2857143   0.1428571), wk =   0.0058309
        k(  262) = (   0.7142857   0.2857143   0.2857143), wk =   0.0058309
        k(  263) = (   0.7142857   0.2857143   0.4285714), wk =   0.0058309
        k(  264) = (   0.7142857   0.2857143   0.5714286), wk =   0.0058309
        k(  265) = (   0.7142857   0.2857143   0.7142857), wk =   0.0058309
        k(  266) = (   0.7142857   0.2857143   0.8571429), wk =   0.0058309
        k(  267) = (   0.7142857   0.4285714   0.0000000), wk =   0.0058309
        k(  268) = (   0.7142857   0.4285714   0.1428571), wk =   0.0058309
        k(  269) = (   0.7142857   0.4285714   0.2857143), wk =   0.0058309
        k(  270) = (   0.7142857   0.4285714   0.4285714), wk =   0.0058309
        k(  271) = (   0.7142857   0.4285714   0.5714286), wk =   0.0058309
        k(  272) = (   0.7142857   0.4285714   0.7142857), wk =   0.0058309
        k(  273) = (   0.7142857   0.4285714   0.8571429), wk =   0.0058309
        k(  274) = (   0.7142857   0.5714286   0.0000000), wk =   0.0058309
        k(  275) = (   0.7142857   0.5714286   0.1428571), wk =   0.0058309
        k(  276) = (   0.7142857   0.5714286   0.2857143), wk =   0.0058309
        k(  277) = (   0.7142857   0.5714286   0.4285714), wk =   0.0058309
        k(  278) = (   0.7142857   0.5714286   0.5714286), wk =   0.0058309
        k(  279) = (   0.7142857   0.5714286   0.7142857), wk =   0.0058309
        k(  280) = (   0.7142857   0.5714286   0.8571429), wk =   0.0058309
        k(  281) = (   0.7142857   0.7142857   0.0000000), wk =   0.0058309
        k(  282) = (   0.7142857   0.7142857   0.1428571), wk =   0.0058309
        k(  283) = (   0.7142857   0.7142857   0.2857143), wk =   0.0058309
        k(  284) = (   0.7142857   0.7142857   0.4285714), wk =   0.0058309
        k(  285) = (   0.7142857   0.7142857   0.5714286), wk =   0.0058309
        k(  286) = (   0.7142857   0.7142857   0.7142857), wk =   0.0058309
        k(  287) = (   0.7142857   0.7142857   0.8571429), wk =   0.0058309
        k(  288) = (   0.7142857   0.8571429   0.0000000), wk =   0.0058309
        k(  289) = (   0.7142857   0.8571429   0.1428571), wk =   0.0058309
        k(  290) = (   0.7142857   0.8571429   0.2857143), wk =   0.0058309
        k(  291) = (   0.7142857   0.8571429   0.4285714), wk =   0.0058309
        k(  292) = (   0.7142857   0.8571429   0.5714286), wk =   0.0058309
        k(  293) = (   0.7142857   0.8571429   0.7142857), wk =   0.0058309
        k(  294) = (   0.7142857   0.8571429   0.8571429), wk =   0.0058309
        k(  295) = (   0.8571429   0.0000000   0.0000000), wk =   0.0058309
        k(  296) = (   0.8571429   0.0000000   0.1428571), wk =   0.0058309
        k(  297) = (   0.8571429   0.0000000   0.2857143), wk =   0.0058309
        k(  298) = (   0.8571429   0.0000000   0.4285714), wk =   0.0058309
        k(  299) = (   0.8571429   0.0000000   0.5714286), wk =   0.0058309
        k(  300) = (   0.8571429   0.0000000   0.7142857), wk =   0.0058309
        k(  301) = (   0.8571429   0.0000000   0.8571429), wk =   0.0058309
        k(  302) = (   0.8571429   0.1428571   0.0000000), wk =   0.0058309
        k(  303) = (   0.8571429   0.1428571   0.1428571), wk =   0.0058309
        k(  304) = (   0.8571429   0.1428571   0.2857143), wk =   0.0058309
        k(  305) = (   0.8571429   0.1428571   0.4285714), wk =   0.0058309
        k(  306) = (   0.8571429   0.1428571   0.5714286), wk =   0.0058309
        k(  307) = (   0.8571429   0.1428571   0.7142857), wk =   0.0058309
        k(  308) = (   0.8571429   0.1428571   0.8571429), wk =   0.0058309
        k(  309) = (   0.8571429   0.2857143   0.0000000), wk =   0.0058309
        k(  310) = (   0.8571429   0.2857143   0.1428571), wk =   0.0058309
        k(  311) = (   0.8571429   0.2857143   0.2857143), wk =   0.0058309
        k(  312) = (   0.8571429   0.2857143   0.4285714), wk =   0.0058309
        k(  313) = (   0.8571429   0.2857143   0.5714286), wk =   0.0058309
        k(  314) = (   0.8571429   0.2857143   0.7142857), wk =   0.0058309
        k(  315) = (   0.8571429   0.2857143   0.8571429), wk =   0.0058309
        k(  316) = (   0.8571429   0.4285714   0.0000000), wk =   0.0058309
        k(  317) = (   0.8571429   0.4285714   0.1428571), wk =   0.0058309
        k(  318) = (   0.8571429   0.4285714   0.2857143), wk =   0.0058309
        k(  319) = (   0.8571429   0.4285714   0.4285714), wk =   0.0058309
        k(  320) = (   0.8571429   0.4285714   0.5714286), wk =   0.0058309
        k(  321) = (   0.8571429   0.4285714   0.7142857), wk =   0.0058309
        k(  322) = (   0.8571429   0.4285714   0.8571429), wk =   0.0058309
        k(  323) = (   0.8571429   0.5714286   0.0000000), wk =   0.0058309
        k(  324) = (   0.8571429   0.5714286   0.1428571), wk =   0.0058309
        k(  325) = (   0.8571429   0.5714286   0.2857143), wk =   0.0058309
        k(  326) = (   0.8571429   0.5714286   0.4285714), wk =   0.0058309
        k(  327) = (   0.8571429   0.5714286   0.5714286), wk =   0.0058309
        k(  328) = (   0.8571429   0.5714286   0.7142857), wk =   0.0058309
        k(  329) = (   0.8571429   0.5714286   0.8571429), wk =   0.0058309
        k(  330) = (   0.8571429   0.7142857   0.0000000), wk =   0.0058309
        k(  331) = (   0.8571429   0.7142857   0.1428571), wk =   0.0058309
        k(  332) = (   0.8571429   0.7142857   0.2857143), wk =   0.0058309
        k(  333) = (   0.8571429   0.7142857   0.4285714), wk =   0.0058309
        k(  334) = (   0.8571429   0.7142857   0.5714286), wk =   0.0058309
        k(  335) = (   0.8571429   0.7142857   0.7142857), wk =   0.0058309
        k(  336) = (   0.8571429   0.7142857   0.8571429), wk =   0.0058309
        k(  337) = (   0.8571429   0.8571429   0.0000000), wk =   0.0058309
        k(  338) = (   0.8571429   0.8571429   0.1428571), wk =   0.0058309
        k(  339) = (   0.8571429   0.8571429   0.2857143), wk =   0.0058309
        k(  340) = (   0.8571429   0.8571429   0.4285714), wk =   0.0058309
        k(  341) = (   0.8571429   0.8571429   0.5714286), wk =   0.0058309
        k(  342) = (   0.8571429   0.8571429   0.7142857), wk =   0.0058309
        k(  343) = (   0.8571429   0.8571429   0.8571429), wk =   0.0058309

     Dense  grid:    58571 G-vectors     FFT dimensions: (  36,  60,  60)

     Smooth grid:    20729 G-vectors     FFT dimensions: (  25,  40,  40)

     Dynamical RAM for                 wfc:       3.16 MB

     Dynamical RAM for     wfc (w. buffer):       3.16 MB

     Dynamical RAM for           str. fact:       1.79 MB

     Dynamical RAM for           local pot:       0.00 MB

     Dynamical RAM for          nlocal pot:       2.69 MB

     Dynamical RAM for                qrad:       3.21 MB

     Dynamical RAM for          rho,v,vnew:       5.65 MB

     Dynamical RAM for           G-vectors:       3.51 MB

     Dynamical RAM for          h,s,v(r/c):       1.17 MB

     Dynamical RAM for          <psi|beta>:       0.08 MB

     Dynamical RAM for                 psi:       6.32 MB

     Dynamical RAM for                hpsi:       6.32 MB

     Dynamical RAM for                spsi:       6.32 MB

     Dynamical RAM for      wfcinit/wfcrot:       6.47 MB

     Dynamical RAM for           addusdens:     169.81 MB

     Estimated static dynamical RAM per process >      27.63 MB

     Estimated max dynamical RAM per process >     197.44 MB

     Check: negative core charge=   -0.000007

     The potential is recalculated from file :
     ../tmp/tio.save/charge-density


     negative rho (up, down):  1.549E-03 0.000E+00
     Starting wfcs are   36 randomized atomic wfcs +   44 random wfcs
     Checking if some PAW data can be deallocated... 

     Band Structure Calculation
     Davidson diagonalization with overlap

     Computing kpt #:     1  of   343
     total cpu time spent up to now is       15.0 secs

     Computing kpt #:     2  of   343
     total cpu time spent up to now is       21.9 secs

     Computing kpt #:     3  of   343
     total cpu time spent up to now is       28.9 secs

     Computing kpt #:     4  of   343
     total cpu time spent up to now is       35.7 secs

     Computing kpt #:     5  of   343
     total cpu time spent up to now is       42.5 secs

     Computing kpt #:     6  of   343
     total cpu time spent up to now is       49.6 secs

     Computing kpt #:     7  of   343
     total cpu time spent up to now is       56.6 secs

     Computing kpt #:     8  of   343
     total cpu time spent up to now is       63.5 secs

     Computing kpt #:     9  of   343
     total cpu time spent up to now is       70.3 secs

     Computing kpt #:    10  of   343
     total cpu time spent up to now is       77.8 secs

     Computing kpt #:    11  of   343
     total cpu time spent up to now is       86.6 secs

     Computing kpt #:    12  of   343
     total cpu time spent up to now is       95.2 secs

     Computing kpt #:    13  of   343
     total cpu time spent up to now is      105.9 secs

     Computing kpt #:    14  of   343
     total cpu time spent up to now is      113.6 secs

     Computing kpt #:    15  of   343
     total cpu time spent up to now is      122.2 secs

     Computing kpt #:    16  of   343
     total cpu time spent up to now is      130.6 secs

     Computing kpt #:    17  of   343
     total cpu time spent up to now is      138.5 secs

     Computing kpt #:    18  of   343
     total cpu time spent up to now is      145.5 secs

     Computing kpt #:    19  of   343
     total cpu time spent up to now is      152.5 secs

     Computing kpt #:    20  of   343
     total cpu time spent up to now is      159.6 secs

     Computing kpt #:    21  of   343
     total cpu time spent up to now is      166.6 secs

     Computing kpt #:    22  of   343
     total cpu time spent up to now is      173.2 secs

     Computing kpt #:    23  of   343
     total cpu time spent up to now is      179.8 secs

     Computing kpt #:    24  of   343
     total cpu time spent up to now is      186.6 secs

     Computing kpt #:    25  of   343
     total cpu time spent up to now is      193.7 secs

     Computing kpt #:    26  of   343
     total cpu time spent up to now is      200.7 secs

     Computing kpt #:    27  of   343
     total cpu time spent up to now is      207.5 secs

     Computing kpt #:    28  of   343
     total cpu time spent up to now is      214.2 secs

     Computing kpt #:    29  of   343
     total cpu time spent up to now is      221.0 secs

     Computing kpt #:    30  of   343
     total cpu time spent up to now is      227.8 secs

     Computing kpt #:    31  of   343
     total cpu time spent up to now is      234.7 secs

     Computing kpt #:    32  of   343
     total cpu time spent up to now is      241.9 secs

     Computing kpt #:    33  of   343
     total cpu time spent up to now is      249.0 secs

     Computing kpt #:    34  of   343
     total cpu time spent up to now is      256.0 secs

     Computing kpt #:    35  of   343
     total cpu time spent up to now is      262.7 secs

     Computing kpt #:    36  of   343
     total cpu time spent up to now is      269.8 secs

     Computing kpt #:    37  of   343
     total cpu time spent up to now is      276.7 secs

     Computing kpt #:    38  of   343
     total cpu time spent up to now is      283.9 secs

     Computing kpt #:    39  of   343
     total cpu time spent up to now is      292.4 secs

     Computing kpt #:    40  of   343
     total cpu time spent up to now is      302.8 secs

     Computing kpt #:    41  of   343
     total cpu time spent up to now is      313.1 secs

     Computing kpt #:    42  of   343
     total cpu time spent up to now is      321.5 secs

     Computing kpt #:    43  of   343
     total cpu time spent up to now is      330.1 secs

     Computing kpt #:    44  of   343
     total cpu time spent up to now is      338.8 secs

     Computing kpt #:    45  of   343
     total cpu time spent up to now is      345.9 secs

     Computing kpt #:    46  of   343
     total cpu time spent up to now is      352.6 secs

     Computing kpt #:    47  of   343
     total cpu time spent up to now is      359.3 secs

     Computing kpt #:    48  of   343
     total cpu time spent up to now is      367.9 secs

     Computing kpt #:    49  of   343
     total cpu time spent up to now is      375.7 secs

     Computing kpt #:    50  of   343
     total cpu time spent up to now is      383.2 secs

     Computing kpt #:    51  of   343
     total cpu time spent up to now is      390.4 secs

     Computing kpt #:    52  of   343
     total cpu time spent up to now is      398.8 secs

     Computing kpt #:    53  of   343
     total cpu time spent up to now is      405.6 secs

     Computing kpt #:    54  of   343
     total cpu time spent up to now is      414.2 secs

     Computing kpt #:    55  of   343
     total cpu time spent up to now is      421.4 secs

     Computing kpt #:    56  of   343
     total cpu time spent up to now is      425.7 secs

     Computing kpt #:    57  of   343
     total cpu time spent up to now is      427.3 secs

     Computing kpt #:    58  of   343
     total cpu time spent up to now is      428.8 secs

     Computing kpt #:    59  of   343
     total cpu time spent up to now is      430.3 secs

     Computing kpt #:    60  of   343
     total cpu time spent up to now is      431.7 secs

     Computing kpt #:    61  of   343
     total cpu time spent up to now is      433.2 secs

     Computing kpt #:    62  of   343
     total cpu time spent up to now is      434.7 secs

     Computing kpt #:    63  of   343
     total cpu time spent up to now is      436.2 secs

     Computing kpt #:    64  of   343
     total cpu time spent up to now is      437.7 secs

     Computing kpt #:    65  of   343
     total cpu time spent up to now is      439.2 secs

     Computing kpt #:    66  of   343
     total cpu time spent up to now is      440.8 secs

     Computing kpt #:    67  of   343
     total cpu time spent up to now is      442.3 secs

     Computing kpt #:    68  of   343
     total cpu time spent up to now is      443.8 secs

     Computing kpt #:    69  of   343
     total cpu time spent up to now is      445.3 secs

     Computing kpt #:    70  of   343
     total cpu time spent up to now is      446.9 secs

     Computing kpt #:    71  of   343
     total cpu time spent up to now is      448.4 secs

     Computing kpt #:    72  of   343
     total cpu time spent up to now is      450.0 secs

     Computing kpt #:    73  of   343
     total cpu time spent up to now is      451.5 secs

     Computing kpt #:    74  of   343
     total cpu time spent up to now is      453.1 secs

     Computing kpt #:    75  of   343
     total cpu time spent up to now is      454.8 secs

     Computing kpt #:    76  of   343
     total cpu time spent up to now is      456.3 secs

     Computing kpt #:    77  of   343
     total cpu time spent up to now is      457.8 secs

     Computing kpt #:    78  of   343
     total cpu time spent up to now is      459.3 secs

     Computing kpt #:    79  of   343
     total cpu time spent up to now is      460.8 secs

     Computing kpt #:    80  of   343
     total cpu time spent up to now is      462.3 secs

     Computing kpt #:    81  of   343
     total cpu time spent up to now is      463.9 secs

     Computing kpt #:    82  of   343
     total cpu time spent up to now is      465.5 secs

     Computing kpt #:    83  of   343
     total cpu time spent up to now is      467.1 secs

     Computing kpt #:    84  of   343
     total cpu time spent up to now is      468.6 secs

     Computing kpt #:    85  of   343
     total cpu time spent up to now is      470.2 secs

     Computing kpt #:    86  of   343
     total cpu time spent up to now is      471.7 secs

     Computing kpt #:    87  of   343
     total cpu time spent up to now is      473.3 secs

     Computing kpt #:    88  of   343
     total cpu time spent up to now is      474.8 secs

     Computing kpt #:    89  of   343
     total cpu time spent up to now is      476.4 secs

     Computing kpt #:    90  of   343
     total cpu time spent up to now is      478.0 secs

     Computing kpt #:    91  of   343
     total cpu time spent up to now is      479.5 secs

     Computing kpt #:    92  of   343
     total cpu time spent up to now is      481.0 secs

     Computing kpt #:    93  of   343
     total cpu time spent up to now is      482.5 secs

     Computing kpt #:    94  of   343
     total cpu time spent up to now is      484.1 secs

     Computing kpt #:    95  of   343
     total cpu time spent up to now is      485.6 secs

     Computing kpt #:    96  of   343
     total cpu time spent up to now is      487.1 secs

     Computing kpt #:    97  of   343
     total cpu time spent up to now is      488.6 secs

     Computing kpt #:    98  of   343
     total cpu time spent up to now is      490.1 secs

     Computing kpt #:    99  of   343
     total cpu time spent up to now is      491.6 secs

     Computing kpt #:   100  of   343
     total cpu time spent up to now is      493.2 secs

     Computing kpt #:   101  of   343
     total cpu time spent up to now is      494.8 secs

     Computing kpt #:   102  of   343
     total cpu time spent up to now is      496.3 secs

     Computing kpt #:   103  of   343
     total cpu time spent up to now is      498.0 secs

     Computing kpt #:   104  of   343
     total cpu time spent up to now is      499.6 secs

     Computing kpt #:   105  of   343
     total cpu time spent up to now is      501.2 secs

     Computing kpt #:   106  of   343
     total cpu time spent up to now is      502.7 secs

     Computing kpt #:   107  of   343
     total cpu time spent up to now is      504.3 secs

     Computing kpt #:   108  of   343
     total cpu time spent up to now is      505.9 secs

     Computing kpt #:   109  of   343
     total cpu time spent up to now is      507.5 secs

     Computing kpt #:   110  of   343
     total cpu time spent up to now is      509.0 secs

     Computing kpt #:   111  of   343
     total cpu time spent up to now is      510.6 secs

     Computing kpt #:   112  of   343
     total cpu time spent up to now is      512.2 secs

     Computing kpt #:   113  of   343
     total cpu time spent up to now is      513.8 secs

     Computing kpt #:   114  of   343
     total cpu time spent up to now is      515.4 secs

     Computing kpt #:   115  of   343
     total cpu time spent up to now is      516.9 secs

     Computing kpt #:   116  of   343
     total cpu time spent up to now is      518.5 secs

     Computing kpt #:   117  of   343
     total cpu time spent up to now is      520.0 secs

     Computing kpt #:   118  of   343
     total cpu time spent up to now is      521.5 secs

     Computing kpt #:   119  of   343
     total cpu time spent up to now is      523.1 secs

     Computing kpt #:   120  of   343
     total cpu time spent up to now is      524.6 secs

     Computing kpt #:   121  of   343
     total cpu time spent up to now is      526.2 secs

     Computing kpt #:   122  of   343
     total cpu time spent up to now is      527.6 secs

     Computing kpt #:   123  of   343
     total cpu time spent up to now is      529.2 secs

     Computing kpt #:   124  of   343
     total cpu time spent up to now is      530.7 secs

     Computing kpt #:   125  of   343
     total cpu time spent up to now is      532.2 secs

     Computing kpt #:   126  of   343
     total cpu time spent up to now is      533.8 secs

     Computing kpt #:   127  of   343
     total cpu time spent up to now is      535.4 secs

     Computing kpt #:   128  of   343
     total cpu time spent up to now is      536.9 secs

     Computing kpt #:   129  of   343
     total cpu time spent up to now is      538.5 secs

     Computing kpt #:   130  of   343
     total cpu time spent up to now is      540.0 secs

     Computing kpt #:   131  of   343
     total cpu time spent up to now is      541.6 secs

     Computing kpt #:   132  of   343
     total cpu time spent up to now is      543.1 secs

     Computing kpt #:   133  of   343
     total cpu time spent up to now is      544.5 secs

     Computing kpt #:   134  of   343
     total cpu time spent up to now is      546.1 secs

     Computing kpt #:   135  of   343
     total cpu time spent up to now is      547.7 secs

     Computing kpt #:   136  of   343
     total cpu time spent up to now is      549.2 secs

     Computing kpt #:   137  of   343
     total cpu time spent up to now is      550.7 secs

     Computing kpt #:   138  of   343
     total cpu time spent up to now is      552.1 secs

     Computing kpt #:   139  of   343
     total cpu time spent up to now is      553.7 secs

     Computing kpt #:   140  of   343
     total cpu time spent up to now is      555.2 secs

     Computing kpt #:   141  of   343
     total cpu time spent up to now is      556.8 secs

     Computing kpt #:   142  of   343
     total cpu time spent up to now is      558.4 secs

     Computing kpt #:   143  of   343
     total cpu time spent up to now is      559.9 secs

     Computing kpt #:   144  of   343
     total cpu time spent up to now is      561.5 secs

     Computing kpt #:   145  of   343
     total cpu time spent up to now is      563.0 secs

     Computing kpt #:   146  of   343
     total cpu time spent up to now is      564.6 secs

     Computing kpt #:   147  of   343
     total cpu time spent up to now is      566.2 secs

     Computing kpt #:   148  of   343
     total cpu time spent up to now is      567.7 secs

     Computing kpt #:   149  of   343
     total cpu time spent up to now is      569.3 secs

     Computing kpt #:   150  of   343
     total cpu time spent up to now is      570.9 secs

     Computing kpt #:   151  of   343
     total cpu time spent up to now is      572.5 secs

     Computing kpt #:   152  of   343
     total cpu time spent up to now is      574.0 secs

     Computing kpt #:   153  of   343
     total cpu time spent up to now is      575.6 secs

     Computing kpt #:   154  of   343
     total cpu time spent up to now is      577.2 secs

     Computing kpt #:   155  of   343
     total cpu time spent up to now is      578.8 secs

     Computing kpt #:   156  of   343
     total cpu time spent up to now is      580.4 secs

     Computing kpt #:   157  of   343
     total cpu time spent up to now is      581.9 secs

     Computing kpt #:   158  of   343
     total cpu time spent up to now is      583.4 secs

     Computing kpt #:   159  of   343
     total cpu time spent up to now is      585.0 secs

     Computing kpt #:   160  of   343
     total cpu time spent up to now is      586.5 secs

     Computing kpt #:   161  of   343
     total cpu time spent up to now is      588.0 secs

     Computing kpt #:   162  of   343
     total cpu time spent up to now is      589.5 secs

     Computing kpt #:   163  of   343
     total cpu time spent up to now is      591.0 secs

     Computing kpt #:   164  of   343
     total cpu time spent up to now is      592.6 secs

     Computing kpt #:   165  of   343
     total cpu time spent up to now is      594.1 secs

     Computing kpt #:   166  of   343
     total cpu time spent up to now is      595.7 secs

     Computing kpt #:   167  of   343
     total cpu time spent up to now is      597.3 secs

     Computing kpt #:   168  of   343
     total cpu time spent up to now is      598.9 secs

     Computing kpt #:   169  of   343
     total cpu time spent up to now is      600.5 secs

     Computing kpt #:   170  of   343
     total cpu time spent up to now is      602.1 secs

     Computing kpt #:   171  of   343
     total cpu time spent up to now is      603.6 secs

     Computing kpt #:   172  of   343
     total cpu time spent up to now is      605.1 secs

     Computing kpt #:   173  of   343
     total cpu time spent up to now is      606.7 secs

     Computing kpt #:   174  of   343
     total cpu time spent up to now is      608.3 secs

     Computing kpt #:   175  of   343
     total cpu time spent up to now is      609.9 secs

     Computing kpt #:   176  of   343
     total cpu time spent up to now is      611.5 secs

     Computing kpt #:   177  of   343
     total cpu time spent up to now is      613.1 secs

     Computing kpt #:   178  of   343
     total cpu time spent up to now is      614.7 secs

     Computing kpt #:   179  of   343
     total cpu time spent up to now is      616.3 secs

     Computing kpt #:   180  of   343
     total cpu time spent up to now is      617.9 secs

     Computing kpt #:   181  of   343
     total cpu time spent up to now is      619.5 secs

     Computing kpt #:   182  of   343
     total cpu time spent up to now is      621.1 secs

     Computing kpt #:   183  of   343
     total cpu time spent up to now is      622.7 secs

     Computing kpt #:   184  of   343
     total cpu time spent up to now is      624.3 secs

     Computing kpt #:   185  of   343
     total cpu time spent up to now is      625.9 secs

     Computing kpt #:   186  of   343
     total cpu time spent up to now is      627.4 secs

     Computing kpt #:   187  of   343
     total cpu time spent up to now is      629.0 secs

     Computing kpt #:   188  of   343
     total cpu time spent up to now is      630.6 secs

     Computing kpt #:   189  of   343
     total cpu time spent up to now is      632.2 secs

     Computing kpt #:   190  of   343
     total cpu time spent up to now is      633.8 secs

     Computing kpt #:   191  of   343
     total cpu time spent up to now is      635.4 secs

     Computing kpt #:   192  of   343
     total cpu time spent up to now is      636.9 secs

     Computing kpt #:   193  of   343
     total cpu time spent up to now is      638.5 secs

     Computing kpt #:   194  of   343
     total cpu time spent up to now is      640.1 secs

     Computing kpt #:   195  of   343
     total cpu time spent up to now is      641.7 secs

     Computing kpt #:   196  of   343
     total cpu time spent up to now is      643.3 secs

     Computing kpt #:   197  of   343
     total cpu time spent up to now is      644.9 secs

     Computing kpt #:   198  of   343
     total cpu time spent up to now is      646.5 secs

     Computing kpt #:   199  of   343
     total cpu time spent up to now is      648.0 secs

     Computing kpt #:   200  of   343
     total cpu time spent up to now is      649.7 secs

     Computing kpt #:   201  of   343
     total cpu time spent up to now is      651.2 secs

     Computing kpt #:   202  of   343
     total cpu time spent up to now is      652.9 secs

     Computing kpt #:   203  of   343
     total cpu time spent up to now is      654.5 secs

     Computing kpt #:   204  of   343
     total cpu time spent up to now is      656.1 secs

     Computing kpt #:   205  of   343
     total cpu time spent up to now is      657.8 secs

     Computing kpt #:   206  of   343
     total cpu time spent up to now is      659.3 secs

     Computing kpt #:   207  of   343
     total cpu time spent up to now is      660.9 secs

     Computing kpt #:   208  of   343
     total cpu time spent up to now is      662.5 secs

     Computing kpt #:   209  of   343
     total cpu time spent up to now is      664.1 secs

     Computing kpt #:   210  of   343
     total cpu time spent up to now is      665.7 secs

     Computing kpt #:   211  of   343
     total cpu time spent up to now is      667.4 secs

     Computing kpt #:   212  of   343
     total cpu time spent up to now is      669.0 secs

     Computing kpt #:   213  of   343
     total cpu time spent up to now is      670.6 secs

     Computing kpt #:   214  of   343
     total cpu time spent up to now is      672.1 secs

     Computing kpt #:   215  of   343
     total cpu time spent up to now is      673.8 secs

     Computing kpt #:   216  of   343
     total cpu time spent up to now is      675.3 secs

     Computing kpt #:   217  of   343
[...]
    25.8006  25.9785  27.5677  27.8263  28.6722  29.1628  30.7305  31.5231
    32.0933  32.2425  34.2927  34.5740  35.3725  35.5476  37.3563  37.7855
    38.7816  39.1546  39.6982  40.3827  42.0595  42.4959  43.3587  43.7965
    45.1237  45.5086  45.8510  46.1722  46.5951  46.9788  47.5512  47.8361
    48.2278  48.6535  48.9772  49.5665  50.1456  50.4927  51.0010  51.3286

     occupation numbers 
     1.0000   1.0000   1.0000   1.0000   1.0000   1.0000   1.0000   1.0000
     1.0000   1.0000   1.0000   1.0000   1.0000   1.0000   1.0000   1.0000
     1.0000   1.0000   1.0000   1.0000   1.0000   1.0000   1.0000   1.0000
    -0.0000  -0.0000  -0.0000  -0.0000  -0.0000  -0.0000  -0.0000  -0.0000
    -0.0000  -0.0000  -0.0000  -0.0000  -0.0000  -0.0000  -0.0000  -0.0000
    -0.0000  -0.0000  -0.0000  -0.0000  -0.0000  -0.0000  -0.0000  -0.0000
    -0.0000  -0.0000  -0.0000  -0.0000  -0.0000  -0.0000  -0.0000  -0.0000
    -0.0000  -0.0000  -0.0000  -0.0000  -0.0000  -0.0000  -0.0000  -0.0000
    -0.0000  -0.0000  -0.0000  -0.0000  -0.0000  -0.0000  -0.0000  -0.0000
    -0.0000  -0.0000  -0.0000  -0.0000  -0.0000  -0.0000  -0.0000  -0.0000

          k = 0.4558 0.3646 0.8571 (  2596 PWs)   bands (ev):

   -48.0972 -48.0954 -24.5004 -24.4855 -24.4102 -24.3997 -24.3723 -24.3643
    -8.6766  -8.5003  -7.8483  -7.7926   3.4567   3.7071   4.3546   4.4606
     5.6679   6.0095   6.3727   6.5066   6.6394   6.9454   7.3468   7.5345
    10.8578  11.0728  11.1913  11.3872  11.9757  12.1883  14.0858  14.2933
    14.7099  14.8086  18.9931  19.6829  21.4662  22.2280  23.4357  23.5710
    25.8006  25.9785  27.5677  27.8263  28.6722  29.1628  30.7305  31.5231
    32.0933  32.2425  34.2927  34.5740  35.3725  35.5476  37.3563  37.7855
    38.7816  39.1546  39.6982  40.3827  42.0595  42.4959  43.3587  43.7965
    45.1237  45.5086  45.8510  46.1722  46.5951  46.9788  47.5512  47.8361
    48.2278  48.6535  48.9772  49.5665  50.1456  50.4927  51.0010  51.3286

     occupation numbers 
     1.0000   1.0000   1.0000   1.0000   1.0000   1.0000   1.0000   1.0000
     1.0000   1.0000   1.0000   1.0000   1.0000   1.0000   1.0000   1.0000
     1.0000   1.0000   1.0000   1.0000   1.0000   1.0000   1.0000   1.0000
    -0.0000  -0.0000  -0.0000  -0.0000  -0.0000  -0.0000  -0.0000  -0.0000
    -0.0000  -0.0000  -0.0000  -0.0000  -0.0000  -0.0000  -0.0000  -0.0000
    -0.0000  -0.0000  -0.0000  -0.0000  -0.0000  -0.0000  -0.0000  -0.0000
    -0.0000  -0.0000  -0.0000  -0.0000  -0.0000  -0.0000  -0.0000  -0.0000
    -0.0000  -0.0000  -0.0000  -0.0000  -0.0000  -0.0000  -0.0000  -0.0000
    -0.0000  -0.0000  -0.0000  -0.0000  -0.0000  -0.0000  -0.0000  -0.0000
    -0.0000  -0.0000  -0.0000  -0.0000  -0.0000  -0.0000  -0.0000  -0.0000

          k = 0.4558 0.4558 0.8571 (  2588 PWs)   bands (ev):

   -48.0989 -48.0937 -24.5041 -24.4638 -24.4265 -24.3971 -24.3780 -24.3617
    -8.8315  -8.3390  -7.8894  -7.7523   3.3577   3.9840   4.2831   4.5624
     5.2735   5.9041   6.1226   6.4911   6.5964   7.3296   7.3756   7.8074
    10.7462  11.0436  11.2167  11.5830  11.7772  12.3741  13.7864  14.2357
    14.7536  15.0830  18.3201  20.1779  20.9558  22.9325  23.2515  23.7069
    25.7672  26.1571  27.7135  27.8682  28.6794  29.6736  29.8716  31.9078
    31.9134  32.4269  33.8947  34.3017  35.5471  36.1902  37.2404  37.6679
    38.7560  38.9509  39.3230  40.4507  42.2820  42.4123  43.3355  44.0206
    44.6765  44.8407  45.8267  45.9359  45.9955  46.4844  47.2689  47.5476
    47.8995  48.8124  48.9416  50.4439  50.4502  51.2255  51.4217  52.0572

     occupation numbers 
     1.0000   1.0000   1.0000   1.0000   1.0000   1.0000   1.0000   1.0000
     1.0000   1.0000   1.0000   1.0000   1.0000   1.0000   1.0000   1.0000
     1.0000   1.0000   1.0000   1.0000   1.0000   1.0000   1.0000   1.0000
    -0.0000  -0.0000  -0.0000  -0.0000  -0.0000  -0.0000  -0.0000  -0.0000
    -0.0000  -0.0000  -0.0000  -0.0000  -0.0000  -0.0000  -0.0000  -0.0000
    -0.0000  -0.0000  -0.0000  -0.0000  -0.0000  -0.0000  -0.0000  -0.0000
    -0.0000  -0.0000  -0.0000  -0.0000  -0.0000  -0.0000  -0.0000  -0.0000
    -0.0000  -0.0000  -0.0000  -0.0000  -0.0000  -0.0000  -0.0000  -0.0000
    -0.0000  -0.0000  -0.0000  -0.0000  -0.0000  -0.0000  -0.0000  -0.0000
    -0.0000  -0.0000  -0.0000  -0.0000  -0.0000  -0.0000  -0.0000  -0.0000

          k = 0.4558 0.5469 0.8571 (  2597 PWs)   bands (ev):

   -48.1001 -48.0926 -24.4963 -24.4583 -24.4290 -24.4015 -24.3788 -24.3659
    -8.9370  -8.2357  -7.8873  -7.7451   3.4342   4.0040   4.2719   4.6369
     5.0210   5.7570   6.1532   6.2215   6.6468   7.3359   7.5665   8.0978
    10.8707  11.0297  11.2287  11.5477  11.6581  12.4928  13.6060  14.2391
    14.6878  15.3318  17.7951  20.1245  21.0471  23.0315  23.4285  24.0615
    25.8581  26.2600  27.0047  28.0251  29.1367  29.4085  30.3994  31.6861
    32.0732  32.5434  33.8930  34.3881  35.2784  36.4384  36.9189  37.1366
    37.8905  39.3497  39.5500  41.1046  41.6151  42.6283  42.8619  43.6668
    44.1779  45.2276  45.4008  45.9752  46.3940  46.6161  46.7079  47.2840
    47.6731  48.7323  49.1023  50.1805  50.4987  51.3813  51.6728  52.7687

     occupation numbers 
     1.0000   1.0000   1.0000   1.0000   1.0000   1.0000   1.0000   1.0000
     1.0000   1.0000   1.0000   1.0000   1.0000   1.0000   1.0000   1.0000
     1.0000   1.0000   1.0000   1.0000   1.0000   1.0000   1.0000   1.0000
    -0.0000  -0.0000  -0.0000  -0.0000  -0.0000  -0.0000  -0.0000  -0.0000
    -0.0000  -0.0000  -0.0000  -0.0000  -0.0000  -0.0000  -0.0000  -0.0000
    -0.0000  -0.0000  -0.0000  -0.0000  -0.0000  -0.0000  -0.0000  -0.0000
    -0.0000  -0.0000  -0.0000  -0.0000  -0.0000  -0.0000  -0.0000  -0.0000
    -0.0000  -0.0000  -0.0000  -0.0000  -0.0000  -0.0000  -0.0000  -0.0000
    -0.0000  -0.0000  -0.0000  -0.0000  -0.0000  -0.0000  -0.0000  -0.0000
    -0.0000  -0.0000  -0.0000  -0.0000  -0.0000  -0.0000  -0.0000  -0.0000

          k = 0.5469 0.0000 0.8571 (  2582 PWs)   bands (ev):

   -48.1024 -48.0903 -24.4937 -24.4922 -24.4110 -24.3939 -24.3703 -24.3658
    -9.1532  -8.1549  -7.7447  -7.7011   3.2842   3.6528   4.0893   4.6479
     4.7499   5.9867   6.2768   6.4749   6.9305   7.6588   7.6639   8.4050
    10.8267  10.9262  10.9642  11.2651  11.3733  12.7775  13.2182  14.5960
    14.6980  15.6290  16.9496  20.5126  20.7818  22.7998  23.6121  24.6710
    25.9322  26.5800  26.8827  27.6194  28.5849  30.7728  31.3328  31.5312
    32.3253  32.6003  34.0148  34.7234  34.7984  35.5888  35.8899  37.5975
    37.9442  38.7585  39.2320  40.8667  41.3623  42.0090  42.7060  42.9596
    44.3892  44.5379  44.7851  46.2504  46.5429  46.9311  47.1805  47.2568
    47.7440  48.5059  49.5380  49.7332  51.1085  51.6311  51.8895  52.7327

     occupation numbers 
     1.0000   1.0000   1.0000   1.0000   1.0000   1.0000   1.0000   1.0000
     1.0000   1.0000   1.0000   1.0000   1.0000   1.0000   1.0000   1.0000
     1.0000   1.0000   1.0000   1.0000   1.0000   1.0000   1.0000   1.0000
    -0.0000  -0.0000  -0.0000  -0.0000  -0.0000  -0.0000  -0.0000  -0.0000
    -0.0000  -0.0000  -0.0000  -0.0000  -0.0000  -0.0000  -0.0000  -0.0000
    -0.0000  -0.0000  -0.0000  -0.0000  -0.0000  -0.0000  -0.0000  -0.0000
    -0.0000  -0.0000  -0.0000  -0.0000  -0.0000  -0.0000  -0.0000  -0.0000
    -0.0000  -0.0000  -0.0000  -0.0000  -0.0000  -0.0000  -0.0000  -0.0000
    -0.0000  -0.0000  -0.0000  -0.0000  -0.0000  -0.0000  -0.0000  -0.0000
    -0.0000  -0.0000  -0.0000  -0.0000  -0.0000  -0.0000  -0.0000  -0.0000

          k = 0.5469 0.0912 0.8571 (  2592 PWs)   bands (ev):

   -48.1018 -48.0909 -24.4999 -24.4773 -24.4135 -24.4000 -24.3728 -24.3643
    -9.0968  -8.1623  -7.8075  -7.7032   3.3036   3.7923   4.1362   4.6913
     4.7772   5.8484   6.3194   6.4435   6.7423   7.6238   7.6364   8.3076
    10.7857  10.8666  11.1489  11.4114  11.4269  12.7041  13.3145  14.4166
    14.7529  15.5672  17.1823  20.5546  20.7044  22.8895  23.5638  24.4090
    25.9092  26.4651  27.3442  27.4650  28.6638  30.5264  30.7984  31.5093
    32.2119  32.5677  34.1271  34.2014  35.4450  35.7012  36.5669  37.7938
    37.9706  38.0069  40.1556  40.3240  41.8838  41.9270  42.6661  42.9946
    44.5307  44.6651  45.3220  45.8489  46.4132  46.7436  47.1201  47.1711
    47.5929  48.7355  49.1721  49.9888  51.1635  51.6394  51.9410  52.4800

     occupation numbers 
     1.0000   1.0000   1.0000   1.0000   1.0000   1.0000   1.0000   1.0000
     1.0000   1.0000   1.0000   1.0000   1.0000   1.0000   1.0000   1.0000
     1.0000   1.0000   1.0000   1.0000   1.0000   1.0000   1.0000   1.0000
    -0.0000  -0.0000  -0.0000  -0.0000  -0.0000  -0.0000  -0.0000  -0.0000
    -0.0000  -0.0000  -0.0000  -0.0000  -0.0000  -0.0000  -0.0000  -0.0000
    -0.0000  -0.0000  -0.0000  -0.0000  -0.0000  -0.0000  -0.0000  -0.0000
    -0.0000  -0.0000  -0.0000  -0.0000  -0.0000  -0.0000  -0.0000  -0.0000
    -0.0000  -0.0000  -0.0000  -0.0000  -0.0000  -0.0000  -0.0000  -0.0000
    -0.0000  -0.0000  -0.0000  -0.0000  -0.0000  -0.0000  -0.0000  -0.0000
    -0.0000  -0.0000  -0.0000  -0.0000  -0.0000  -0.0000  -0.0000  -0.0000

          k = 0.5469 0.1823 0.8571 (  2597 PWs)   bands (ev):

   -48.1001 -48.0926 -24.4963 -24.4583 -24.4290 -24.4015 -24.3788 -24.3659
    -8.9370  -8.2357  -7.8873  -7.7451   3.4342   4.0040   4.2719   4.6369
     5.0210   5.7570   6.1532   6.2215   6.6468   7.3359   7.5665   8.0978
    10.8707  11.0297  11.2287  11.5477  11.6581  12.4928  13.6060  14.2391
    14.6878  15.3318  17.7951  20.1245  21.0471  23.0315  23.4285  24.0615
    25.8581  26.2600  27.0047  28.0251  29.1367  29.4085  30.3994  31.6861
    32.0732  32.5434  33.8930  34.3881  35.2784  36.4384  36.9189  37.1366
    37.8905  39.3497  39.5500  41.1046  41.6151  42.6283  42.8619  43.6668
    44.1779  45.2276  45.4008  45.9752  46.3940  46.6161  46.7079  47.2840
    47.6731  48.7323  49.1023  50.1805  50.4987  51.3813  51.6728  52.7687

     occupation numbers 
     1.0000   1.0000   1.0000   1.0000   1.0000   1.0000   1.0000   1.0000
     1.0000   1.0000   1.0000   1.0000   1.0000   1.0000   1.0000   1.0000
     1.0000   1.0000   1.0000   1.0000   1.0000   1.0000   1.0000   1.0000
    -0.0000  -0.0000  -0.0000  -0.0000  -0.0000  -0.0000  -0.0000  -0.0000
    -0.0000  -0.0000  -0.0000  -0.0000  -0.0000  -0.0000  -0.0000  -0.0000
    -0.0000  -0.0000  -0.0000  -0.0000  -0.0000  -0.0000  -0.0000  -0.0000
    -0.0000  -0.0000  -0.0000  -0.0000  -0.0000  -0.0000  -0.0000  -0.0000
    -0.0000  -0.0000  -0.0000  -0.0000  -0.0000  -0.0000  -0.0000  -0.0000
    -0.0000  -0.0000  -0.0000  -0.0000  -0.0000  -0.0000  -0.0000  -0.0000
    -0.0000  -0.0000  -0.0000  -0.0000  -0.0000  -0.0000  -0.0000  -0.0000

          k = 0.5469 0.2735 0.8571 (  2588 PWs)   bands (ev):

   -48.0977 -48.0950 -24.4827 -24.4628 -24.4259 -24.4085 -24.3793 -24.3723
    -8.7023  -8.4417  -7.8762  -7.8130   3.6870   3.9543   4.4377   4.5669
     5.3673   5.7087   6.0036   6.2591   6.4258   6.7933   7.6731   7.8844
    11.0490  11.1728  11.3327  11.5548  11.8958  12.1979  13.9655  14.1735
    14.6493  14.9510  18.5892  19.4086  21.7055  22.4965  23.6616  23.8820
    25.9321  26.0613  26.8833  27.4726  29.1469  29.5538  30.7527  31.5688
    32.1312  32.3145  33.9934  34.4162  35.0351  35.6733  37.1051  37.4794
    38.4124  39.3248  40.0597  40.8560  41.7934  42.3899  43.4431  44.3709
    44.7785  45.4480  45.8580  46.1088  46.3097  46.5760  47.3080  47.6572
    47.9394  48.2961  48.5342  49.4159  50.2527  50.9174  51.2750  51.3155

     occupation numbers 
     1.0000   1.0000   1.0000   1.0000   1.0000   1.0000   1.0000   1.0000
     1.0000   1.0000   1.0000   1.0000   1.0000   1.0000   1.0000   1.0000
     1.0000   1.0000   1.0000   1.0000   1.0000   1.0000   1.0000   1.0000
    -0.0000  -0.0000  -0.0000  -0.0000  -0.0000  -0.0000  -0.0000  -0.0000
    -0.0000  -0.0000  -0.0000  -0.0000  -0.0000  -0.0000  -0.0000  -0.0000
    -0.0000  -0.0000  -0.0000  -0.0000  -0.0000  -0.0000  -0.0000  -0.0000
    -0.0000  -0.0000  -0.0000  -0.0000  -0.0000  -0.0000  -0.0000  -0.0000
    -0.0000  -0.0000  -0.0000  -0.0000  -0.0000  -0.0000  -0.0000  -0.0000
    -0.0000  -0.0000  -0.0000  -0.0000  -0.0000  -0.0000  -0.0000  -0.0000
    -0.0000  -0.0000  -0.0000  -0.0000  -0.0000  -0.0000  -0.0000  -0.0000

          k = 0.5469 0.3646 0.8571 (  2588 PWs)   bands (ev):

   -48.0977 -48.0950 -24.4827 -24.4628 -24.4259 -24.4085 -24.3793 -24.3723
    -8.7023  -8.4417  -7.8762  -7.8130   3.6870   3.9543   4.4377   4.5669
     5.3673   5.7087   6.0036   6.2591   6.4258   6.7933   7.6731   7.8844
    11.0490  11.1728  11.3327  11.5548  11.8958  12.1979  13.9655  14.1735
    14.6493  14.9510  18.5892  19.4086  21.7055  22.4965  23.6616  23.8820
    25.9321  26.0613  26.8833  27.4726  29.1469  29.5538  30.7527  31.5688
    32.1312  32.3145  33.9934  34.4162  35.0351  35.6733  37.1051  37.4794
    38.4124  39.3248  40.0597  40.8560  41.7934  42.3899  43.4431  44.3709
    44.7785  45.4480  45.8580  46.1088  46.3097  46.5760  47.3080  47.6572
    47.9394  48.2961  48.5342  49.4159  50.2527  50.9174  51.2750  51.3155

     occupation numbers 
     1.0000   1.0000   1.0000   1.0000   1.0000   1.0000   1.0000   1.0000
     1.0000   1.0000   1.0000   1.0000   1.0000   1.0000   1.0000   1.0000
     1.0000   1.0000   1.0000   1.0000   1.0000   1.0000   1.0000   1.0000
    -0.0000  -0.0000  -0.0000  -0.0000  -0.0000  -0.0000  -0.0000  -0.0000
    -0.0000  -0.0000  -0.0000  -0.0000  -0.0000  -0.0000  -0.0000  -0.0000
    -0.0000  -0.0000  -0.0000  -0.0000  -0.0000  -0.0000  -0.0000  -0.0000
    -0.0000  -0.0000  -0.0000  -0.0000  -0.0000  -0.0000  -0.0000  -0.0000
    -0.0000  -0.0000  -0.0000  -0.0000  -0.0000  -0.0000  -0.0000  -0.0000
    -0.0000  -0.0000  -0.0000  -0.0000  -0.0000  -0.0000  -0.0000  -0.0000
    -0.0000  -0.0000  -0.0000  -0.0000  -0.0000  -0.0000  -0.0000  -0.0000

          k = 0.5469 0.4558 0.8571 (  2597 PWs)   bands (ev):

   -48.1001 -48.0926 -24.4963 -24.4583 -24.4290 -24.4015 -24.3788 -24.3659
    -8.9370  -8.2357  -7.8873  -7.7451   3.4342   4.0040   4.2719   4.6369
     5.0210   5.7570   6.1532   6.2215   6.6468   7.3359   7.5665   8.0978
    10.8707  11.0297  11.2287  11.5477  11.6581  12.4928  13.6060  14.2391
    14.6878  15.3318  17.7951  20.1245  21.0471  23.0315  23.4285  24.0615
    25.8581  26.2600  27.0047  28.0251  29.1367  29.4085  30.3994  31.6861
    32.0732  32.5434  33.8930  34.3881  35.2784  36.4384  36.9189  37.1366
    37.8905  39.3497  39.5500  41.1046  41.6151  42.6283  42.8619  43.6668
    44.1779  45.2276  45.4008  45.9752  46.3940  46.6161  46.7079  47.2840
    47.6731  48.7323  49.1023  50.1805  50.4987  51.3813  51.6728  52.7687

     occupation numbers 
     1.0000   1.0000   1.0000   1.0000   1.0000   1.0000   1.0000   1.0000
     1.0000   1.0000   1.0000   1.0000   1.0000   1.0000   1.0000   1.0000
     1.0000   1.0000   1.0000   1.0000   1.0000   1.0000   1.0000   1.0000
    -0.0000  -0.0000  -0.0000  -0.0000  -0.0000  -0.0000  -0.0000  -0.0000
    -0.0000  -0.0000  -0.0000  -0.0000  -0.0000  -0.0000  -0.0000  -0.0000
    -0.0000  -0.0000  -0.0000  -0.0000  -0.0000  -0.0000  -0.0000  -0.0000
    -0.0000  -0.0000  -0.0000  -0.0000  -0.0000  -0.0000  -0.0000  -0.0000
    -0.0000  -0.0000  -0.0000  -0.0000  -0.0000  -0.0000  -0.0000  -0.0000
    -0.0000  -0.0000  -0.0000  -0.0000  -0.0000  -0.0000  -0.0000  -0.0000
    -0.0000  -0.0000  -0.0000  -0.0000  -0.0000  -0.0000  -0.0000  -0.0000

          k = 0.5469 0.5469 0.8571 (  2592 PWs)   bands (ev):

   -48.1018 -48.0909 -24.4999 -24.4773 -24.4135 -24.4000 -24.3728 -24.3643
    -9.0968  -8.1623  -7.8075  -7.7032   3.3036   3.7923   4.1362   4.6913
     4.7772   5.8484   6.3194   6.4435   6.7423   7.6238   7.6364   8.3076
    10.7857  10.8666  11.1489  11.4114  11.4269  12.7041  13.3145  14.4166
    14.7529  15.5672  17.1823  20.5546  20.7044  22.8895  23.5638  24.4090
    25.9092  26.4651  27.3442  27.4650  28.6638  30.5264  30.7984  31.5093
    32.2119  32.5677  34.1271  34.2014  35.4450  35.7012  36.5669  37.7938
    37.9706  38.0069  40.1556  40.3240  41.8838  41.9270  42.6661  42.9946
    44.5307  44.6651  45.3220  45.8489  46.4132  46.7436  47.1201  47.1711
    47.5929  48.7355  49.1721  49.9888  51.1635  51.6394  51.9410  52.4800

     occupation numbers 
     1.0000   1.0000   1.0000   1.0000   1.0000   1.0000   1.0000   1.0000
     1.0000   1.0000   1.0000   1.0000   1.0000   1.0000   1.0000   1.0000
     1.0000   1.0000   1.0000   1.0000   1.0000   1.0000   1.0000   1.0000
    -0.0000  -0.0000  -0.0000  -0.0000  -0.0000  -0.0000  -0.0000  -0.0000
    -0.0000  -0.0000  -0.0000  -0.0000  -0.0000  -0.0000  -0.0000  -0.0000
    -0.0000  -0.0000  -0.0000  -0.0000  -0.0000  -0.0000  -0.0000  -0.0000
    -0.0000  -0.0000  -0.0000  -0.0000  -0.0000  -0.0000  -0.0000  -0.0000
    -0.0000  -0.0000  -0.0000  -0.0000  -0.0000  -0.0000  -0.0000  -0.0000
    -0.0000  -0.0000  -0.0000  -0.0000  -0.0000  -0.0000  -0.0000  -0.0000
    -0.0000  -0.0000  -0.0000  -0.0000  -0.0000  -0.0000  -0.0000  -0.0000

     the Fermi energy is     9.4460 ev
     (compare with:     9.4460 eV, computed in scf)

     Writing all to output data dir ../tmp/tio.save/

     init_run     :      4.81s CPU      5.28s WALL (       1 calls)
     electrons    :    832.01s CPU    869.90s WALL (       1 calls)

     Called by init_run:
     wfcinit      :      0.00s CPU      0.00s WALL (       1 calls)
     wfcinit:atom :      0.31s CPU      0.39s WALL (     343 calls)
     wfcinit:wfcr :     30.12s CPU     31.28s WALL (     343 calls)
     potinit      :      0.93s CPU      0.98s WALL (       1 calls)
     hinit0       :      2.62s CPU      2.76s WALL (       1 calls)

     Called by electrons:
     c_bands      :    831.98s CPU    869.86s WALL (       1 calls)
     v_of_rho     :      0.17s CPU      0.20s WALL (       1 calls)
     v_h          :      0.00s CPU      0.01s WALL (       1 calls)
     v_xc         :      0.17s CPU      0.19s WALL (       1 calls)
     newd         :      0.91s CPU      1.11s WALL (       1 calls)
     PAW_pot      :      0.42s CPU      0.44s WALL (       1 calls)

     Called by c_bands:
     init_us_2    :      0.28s CPU      0.45s WALL (     343 calls)
     init_us_2:cp :      0.28s CPU      0.44s WALL (     343 calls)
     cegterg      :    796.99s CPU    831.98s WALL (     686 calls)

     Called by sum_band:

     Called by *egterg:
     cdiaghg      :    111.86s CPU    116.23s WALL (   12043 calls)
     cegterg:over :    108.73s CPU    113.04s WALL (   11700 calls)
     cegterg:upda :     50.86s CPU     53.10s WALL (   11700 calls)
     cegterg:last :    129.38s CPU    134.16s WALL (    5489 calls)
     h_psi        :    378.32s CPU    396.85s WALL (   12729 calls)
     s_psi        :     21.94s CPU     22.93s WALL (   12729 calls)
     g_psi        :      5.80s CPU      6.04s WALL (   11700 calls)

     Called by h_psi:
     h_psi:calbec :     32.82s CPU     34.25s WALL (   12729 calls)
     vloc_psi     :    320.44s CPU    336.49s WALL (   12729 calls)
     add_vuspsi   :     22.29s CPU     23.25s WALL (   12729 calls)

     General routines
     calbec       :     32.77s CPU     34.21s WALL (   12729 calls)
     fft          :      0.64s CPU      0.65s WALL (      13 calls)
     ffts         :      0.31s CPU      0.31s WALL (       1 calls)
     fftw         :    272.28s CPU    286.20s WALL (  939238 calls)
     interpolate  :      0.32s CPU      0.32s WALL (       1 calls)
     davcio       :      0.34s CPU      1.62s WALL (     686 calls)

     Parallel routines

     PAW routines
     PAW_pot      :      0.42s CPU      0.44s WALL (       1 calls)

     PWSCF        :  13m58.17s CPU  14m39.09s WALL


   This run was terminated on:  17:47:26  14Nov2022            

=------------------------------------------------------------------------------=
   JOB DONE.
=------------------------------------------------------------------------------=
